n -t * -s 0  -x 5 -y 2 -Z 0 -z 30  -v circle -c black
n -t * -s 1  -x 390 -y 385 -Z 0 -z 30  -v circle -c black
n -t * -s 2  -x 0 -y 0 -Z 0 -z 30  -v circle -c black
n -t * -s 3  -x 0 -y 0 -Z 0 -z 30  -v circle -c black
V -t * -v 1.0a5 -a 0
W -t * -x 500 -y 500
A -t * -n 1 -p 0 -o 0x7fffffff -c 30 -a 1
A -t * -h 1 -m 1073741823 -s 0
+ -t 0.036400876 -s 1 -d -1 -p message -e 32 -c 2 -a 0 -i 0 -k RTR 
- -t 0.036400876 -s 1 -d -1 -p message -e 32 -c 2 -a 0 -i 0 -k RTR
h -t 0.036400876 -s 1 -d -1 -p message -e 32 -c 2 -a 0 -i 0 -k RTR
+ -t 0.036675876 -s 1 -d -1 -p message -e 90 -c 2 -a 0 -i 0 -k MAC 
- -t 0.036675876 -s 1 -d -1 -p message -e 90 -c 2 -a 0 -i 0 -k MAC
h -t 0.036675876 -s 1 -d -1 -p message -e 90 -c 2 -a 0 -i 0 -k MAC
+ -t 0.182633994 -s 2 -d -1 -p message -e 32 -c 2 -a 0 -i 1 -k RTR 
- -t 0.182633994 -s 2 -d -1 -p message -e 32 -c 2 -a 0 -i 1 -k RTR
h -t 0.182633994 -s 2 -d -1 -p message -e 32 -c 2 -a 0 -i 1 -k RTR
+ -t 0.182948994 -s 2 -d -1 -p message -e 90 -c 2 -a 0 -i 1 -k MAC 
- -t 0.182948994 -s 2 -d -1 -p message -e 90 -c 2 -a 0 -i 1 -k MAC
h -t 0.182948994 -s 2 -d -1 -p message -e 90 -c 2 -a 0 -i 1 -k MAC
r -t 0.183668994 -s 3 -d -1 -p message -e 32 -c 2 -a 0 -i 1 -k MAC
r -t 0.183669012 -s 0 -d -1 -p message -e 32 -c 2 -a 0 -i 1 -k MAC
r -t 0.183693994 -s 3 -d -1 -p message -e 32 -c 2 -a 0 -i 1 -k RTR
r -t 0.183694012 -s 0 -d -1 -p message -e 32 -c 2 -a 0 -i 1 -k RTR
+ -t 0.882774710 -s 3 -d -1 -p message -e 32 -c 2 -a 0 -i 2 -k RTR 
- -t 0.882774710 -s 3 -d -1 -p message -e 32 -c 2 -a 0 -i 2 -k RTR
h -t 0.882774710 -s 3 -d -1 -p message -e 32 -c 2 -a 0 -i 2 -k RTR
+ -t 0.883209710 -s 3 -d -1 -p message -e 90 -c 2 -a 0 -i 2 -k MAC 
- -t 0.883209710 -s 3 -d -1 -p message -e 90 -c 2 -a 0 -i 2 -k MAC
h -t 0.883209710 -s 3 -d -1 -p message -e 90 -c 2 -a 0 -i 2 -k MAC
r -t 0.883929710 -s 2 -d -1 -p message -e 32 -c 2 -a 0 -i 2 -k MAC
r -t 0.883929728 -s 0 -d -1 -p message -e 32 -c 2 -a 0 -i 2 -k MAC
r -t 0.883954710 -s 2 -d -1 -p message -e 32 -c 2 -a 0 -i 2 -k RTR
r -t 0.883954728 -s 0 -d -1 -p message -e 32 -c 2 -a 0 -i 2 -k RTR
+ -t 1.115997999 -s 0 -d -1 -p message -e 32 -c 2 -a 0 -i 3 -k RTR 
- -t 1.115997999 -s 0 -d -1 -p message -e 32 -c 2 -a 0 -i 3 -k RTR
h -t 1.115997999 -s 0 -d -1 -p message -e 32 -c 2 -a 0 -i 3 -k RTR
+ -t 1.116412999 -s 0 -d -1 -p message -e 90 -c 2 -a 0 -i 3 -k MAC 
- -t 1.116412999 -s 0 -d -1 -p message -e 90 -c 2 -a 0 -i 3 -k MAC
h -t 1.116412999 -s 0 -d -1 -p message -e 90 -c 2 -a 0 -i 3 -k MAC
r -t 1.117133017 -s 3 -d -1 -p message -e 32 -c 2 -a 0 -i 3 -k MAC
r -t 1.117133017 -s 2 -d -1 -p message -e 32 -c 2 -a 0 -i 3 -k MAC
r -t 1.117158017 -s 3 -d -1 -p message -e 32 -c 2 -a 0 -i 3 -k RTR
r -t 1.117158017 -s 2 -d -1 -p message -e 32 -c 2 -a 0 -i 3 -k RTR
n -t 2.000000 -s 1 -x 390.000000 -y 385.000000 -U -16.086306 -V -19.137157 -T 18.027756
n -t 3.000000 -s 0 -x 5.000000 -y 2.000000 -U 23.818756 -V 32.135135 -T 12.385198
+ -t 4.000000000 -s 0 -d -1 -p tcp -e 40 -c 2 -a 0 -i 4 -k AGT 
- -t 4.000000000 -s 0 -d -1 -p tcp -e 40 -c 2 -a 0 -i 4 -k AGT
h -t 4.000000000 -s 0 -d -1 -p tcp -e 40 -c 2 -a 0 -i 4 -k AGT
+ -t 7.000000000 -s 0 -d -1 -p tcp -e 40 -c 2 -a 0 -i 5 -k AGT 
- -t 7.000000000 -s 0 -d -1 -p tcp -e 40 -c 2 -a 0 -i 5 -k AGT
h -t 7.000000000 -s 0 -d -1 -p tcp -e 40 -c 2 -a 0 -i 5 -k AGT
n -t 10.000000 -s 1 -x 261.309554 -y 231.902746 -U 27.110561 -V 29.411180 -T 8.435474
+ -t 12.186274891 -s 0 -d -1 -p message -e 32 -c 2 -a 0 -i 7 -k RTR 
- -t 12.186274891 -s 0 -d -1 -p message -e 32 -c 2 -a 0 -i 7 -k RTR
h -t 12.186274891 -s 0 -d -1 -p message -e 32 -c 2 -a 0 -i 7 -k RTR
+ -t 12.186369891 -s 0 -d -1 -p message -e 90 -c 2 -a 0 -i 7 -k MAC 
- -t 12.186369891 -s 0 -d -1 -p message -e 90 -c 2 -a 0 -i 7 -k MAC
h -t 12.186369891 -s 0 -d -1 -p message -e 90 -c 2 -a 0 -i 7 -k MAC
r -t 12.187090214 -s 1 -d -1 -p message -e 32 -c 2 -a 0 -i 7 -k MAC
r -t 12.187115214 -s 1 -d -1 -p message -e 32 -c 2 -a 0 -i 7 -k RTR
+ -t 12.187181404 -s 3 -d -1 -p message -e 32 -c 2 -a 0 -i 6 -k RTR 
- -t 12.187181404 -s 3 -d -1 -p message -e 32 -c 2 -a 0 -i 6 -k RTR
h -t 12.187181404 -s 3 -d -1 -p message -e 32 -c 2 -a 0 -i 6 -k RTR
+ -t 12.187945132 -s 3 -d -1 -p message -e 90 -c 2 -a 0 -i 6 -k MAC 
- -t 12.187945132 -s 3 -d -1 -p message -e 90 -c 2 -a 0 -i 6 -k MAC
h -t 12.187945132 -s 3 -d -1 -p message -e 90 -c 2 -a 0 -i 6 -k MAC
r -t 12.188665132 -s 2 -d -1 -p message -e 32 -c 2 -a 0 -i 6 -k MAC
r -t 12.188690132 -s 2 -d -1 -p message -e 32 -c 2 -a 0 -i 6 -k RTR
+ -t 12.460636638 -s 1 -d -1 -p message -e 32 -c 2 -a 0 -i 8 -k RTR 
- -t 12.460636638 -s 1 -d -1 -p message -e 32 -c 2 -a 0 -i 8 -k RTR
h -t 12.460636638 -s 1 -d -1 -p message -e 32 -c 2 -a 0 -i 8 -k RTR
+ -t 12.461251638 -s 1 -d -1 -p message -e 90 -c 2 -a 0 -i 8 -k MAC 
- -t 12.461251638 -s 1 -d -1 -p message -e 90 -c 2 -a 0 -i 8 -k MAC
h -t 12.461251638 -s 1 -d -1 -p message -e 90 -c 2 -a 0 -i 8 -k MAC
r -t 12.461971963 -s 0 -d -1 -p message -e 32 -c 2 -a 0 -i 8 -k MAC
r -t 12.461996963 -s 0 -d -1 -p message -e 32 -c 2 -a 0 -i 8 -k RTR
+ -t 12.461996963 -s 0 -d 1 -p tcp -e 80 -c 2 -a 0 -i 4 -k RTR 
- -t 12.461996963 -s 0 -d 1 -p tcp -e 80 -c 2 -a 0 -i 4 -k RTR
h -t 12.461996963 -s 0 -d 1 -p tcp -e 80 -c 2 -a 0 -i 4 -k RTR
+ -t 12.461996963 -s 0 -d 1 -p tcp -e 80 -c 2 -a 0 -i 5 -k RTR 
- -t 12.461996963 -s 0 -d 1 -p tcp -e 80 -c 2 -a 0 -i 5 -k RTR
h -t 12.461996963 -s 0 -d 1 -p tcp -e 80 -c 2 -a 0 -i 5 -k RTR
d -t 12.461996963 -s 0 -d 1 -p tcp -e 80 -c 2 -a 0 -i 4 -k IFQ
+ -t 12.462091963 -s 0 -d -1 -p ARP -e 86 -c 2 -a 0 -i 0 -k MAC 
- -t 12.462091963 -s 0 -d -1 -p ARP -e 86 -c 2 -a 0 -i 0 -k MAC
h -t 12.462091963 -s 0 -d -1 -p ARP -e 86 -c 2 -a 0 -i 0 -k MAC
r -t 12.462780289 -s 1 -d -1 -p ARP -e 28 -c 2 -a 0 -i 0 -k MAC
+ -t 12.463129963 -s 0 -d -1 -p ARP -e 86 -c 2 -a 0 -i 0 -k MAC 
- -t 12.463129963 -s 0 -d -1 -p ARP -e 86 -c 2 -a 0 -i 0 -k MAC
h -t 12.463129963 -s 0 -d -1 -p ARP -e 86 -c 2 -a 0 -i 0 -k MAC
+ -t 12.463130289 -s 1 -d -1 -p RTS -e 44 -c 2 -a 0 -i 0 -k MAC 
- -t 12.463130289 -s 1 -d -1 -p RTS -e 44 -c 2 -a 0 -i 0 -k MAC
h -t 12.463130289 -s 1 -d -1 -p RTS -e 44 -c 2 -a 0 -i 0 -k MAC
+ -t 12.464932289 -s 1 -d -1 -p RTS -e 44 -c 2 -a 0 -i 0 -k MAC 
- -t 12.464932289 -s 1 -d -1 -p RTS -e 44 -c 2 -a 0 -i 0 -k MAC
h -t 12.464932289 -s 1 -d -1 -p RTS -e 44 -c 2 -a 0 -i 0 -k MAC
r -t 12.465284615 -s 0 -d -1 -p RTS -e 44 -c 2 -a 0 -i 0 -k MAC
+ -t 12.465294615 -s 0 -d -1 -p CTS -e 38 -c 2 -a 0 -i 0 -k MAC 
- -t 12.465294615 -s 0 -d -1 -p CTS -e 38 -c 2 -a 0 -i 0 -k MAC
h -t 12.465294615 -s 0 -d -1 -p CTS -e 38 -c 2 -a 0 -i 0 -k MAC
r -t 12.465598940 -s 1 -d -1 -p CTS -e 38 -c 2 -a 0 -i 0 -k MAC
+ -t 12.465608940 -s 1 -d -1 -p ARP -e 86 -c 2 -a 0 -i 0 -k MAC 
- -t 12.465608940 -s 1 -d -1 -p ARP -e 86 -c 2 -a 0 -i 0 -k MAC
h -t 12.465608940 -s 1 -d -1 -p ARP -e 86 -c 2 -a 0 -i 0 -k MAC
r -t 12.466297266 -s 0 -d -1 -p ARP -e 28 -c 2 -a 0 -i 0 -k MAC
+ -t 12.466307266 -s 0 -d -1 -p ACK -e 38 -c 2 -a 0 -i 0 -k MAC 
- -t 12.466307266 -s 0 -d -1 -p ACK -e 38 -c 2 -a 0 -i 0 -k MAC
h -t 12.466307266 -s 0 -d -1 -p ACK -e 38 -c 2 -a 0 -i 0 -k MAC
r -t 12.466611592 -s 1 -d -1 -p ACK -e 38 -c 2 -a 0 -i 0 -k MAC
+ -t 12.466741266 -s 0 -d -1 -p RTS -e 44 -c 2 -a 0 -i 0 -k MAC 
- -t 12.466741266 -s 0 -d -1 -p RTS -e 44 -c 2 -a 0 -i 0 -k MAC
h -t 12.466741266 -s 0 -d -1 -p RTS -e 44 -c 2 -a 0 -i 0 -k MAC
r -t 12.467093592 -s 1 -d -1 -p RTS -e 44 -c 2 -a 0 -i 0 -k MAC
+ -t 12.467103592 -s 1 -d -1 -p CTS -e 38 -c 2 -a 0 -i 0 -k MAC 
- -t 12.467103592 -s 1 -d -1 -p CTS -e 38 -c 2 -a 0 -i 0 -k MAC
h -t 12.467103592 -s 1 -d -1 -p CTS -e 38 -c 2 -a 0 -i 0 -k MAC
r -t 12.467407918 -s 0 -d -1 -p CTS -e 38 -c 2 -a 0 -i 0 -k MAC
+ -t 12.467417918 -s 0 -d 1 -p tcp -e 138 -c 2 -a 0 -i 5 -k MAC 
- -t 12.467417918 -s 0 -d 1 -p tcp -e 138 -c 2 -a 0 -i 5 -k MAC
h -t 12.467417918 -s 0 -d 1 -p tcp -e 138 -c 2 -a 0 -i 5 -k MAC
r -t 12.468522243 -s 1 -d 1 -p tcp -e 80 -c 2 -a 0 -i 5 -k MAC
+ -t 12.468532243 -s 1 -d -1 -p ACK -e 38 -c 2 -a 0 -i 0 -k MAC 
- -t 12.468532243 -s 1 -d -1 -p ACK -e 38 -c 2 -a 0 -i 0 -k MAC
h -t 12.468532243 -s 1 -d -1 -p ACK -e 38 -c 2 -a 0 -i 0 -k MAC
r -t 12.468547243 -s 1 -d 1 -p tcp -e 80 -c 2 -a 0 -i 5 -k AGT
+ -t 12.468547243 -s 1 -d -1 -p ack -e 40 -c 2 -a 0 -i 9 -k AGT 
- -t 12.468547243 -s 1 -d -1 -p ack -e 40 -c 2 -a 0 -i 9 -k AGT
h -t 12.468547243 -s 1 -d -1 -p ack -e 40 -c 2 -a 0 -i 9 -k AGT
+ -t 12.468547243 -s 1 -d 0 -p ack -e 60 -c 2 -a 0 -i 9 -k RTR 
- -t 12.468547243 -s 1 -d 0 -p ack -e 60 -c 2 -a 0 -i 9 -k RTR
h -t 12.468547243 -s 1 -d 0 -p ack -e 60 -c 2 -a 0 -i 9 -k RTR
r -t 12.468836569 -s 0 -d -1 -p ACK -e 38 -c 2 -a 0 -i 0 -k MAC
+ -t 12.469086243 -s 1 -d -1 -p RTS -e 44 -c 2 -a 0 -i 0 -k MAC 
- -t 12.469086243 -s 1 -d -1 -p RTS -e 44 -c 2 -a 0 -i 0 -k MAC
h -t 12.469086243 -s 1 -d -1 -p RTS -e 44 -c 2 -a 0 -i 0 -k MAC
r -t 12.469438569 -s 0 -d -1 -p RTS -e 44 -c 2 -a 0 -i 0 -k MAC
+ -t 12.469448569 -s 0 -d -1 -p CTS -e 38 -c 2 -a 0 -i 0 -k MAC 
- -t 12.469448569 -s 0 -d -1 -p CTS -e 38 -c 2 -a 0 -i 0 -k MAC
h -t 12.469448569 -s 0 -d -1 -p CTS -e 38 -c 2 -a 0 -i 0 -k MAC
r -t 12.469752895 -s 1 -d -1 -p CTS -e 38 -c 2 -a 0 -i 0 -k MAC
+ -t 12.469762895 -s 1 -d 0 -p ack -e 118 -c 2 -a 0 -i 9 -k MAC 
- -t 12.469762895 -s 1 -d 0 -p ack -e 118 -c 2 -a 0 -i 9 -k MAC
h -t 12.469762895 -s 1 -d 0 -p ack -e 118 -c 2 -a 0 -i 9 -k MAC
r -t 12.470707221 -s 0 -d 0 -p ack -e 60 -c 2 -a 0 -i 9 -k MAC
+ -t 12.470717221 -s 0 -d -1 -p ACK -e 38 -c 2 -a 0 -i 0 -k MAC 
- -t 12.470717221 -s 0 -d -1 -p ACK -e 38 -c 2 -a 0 -i 0 -k MAC
h -t 12.470717221 -s 0 -d -1 -p ACK -e 38 -c 2 -a 0 -i 0 -k MAC
r -t 12.470732221 -s 0 -d 0 -p ack -e 60 -c 2 -a 0 -i 9 -k AGT
+ -t 12.470732221 -s 0 -d -1 -p tcp -e 1040 -c 2 -a 0 -i 10 -k AGT 
- -t 12.470732221 -s 0 -d -1 -p tcp -e 1040 -c 2 -a 0 -i 10 -k AGT
h -t 12.470732221 -s 0 -d -1 -p tcp -e 1040 -c 2 -a 0 -i 10 -k AGT
+ -t 12.470732221 -s 0 -d 1 -p tcp -e 1060 -c 2 -a 0 -i 10 -k RTR 
- -t 12.470732221 -s 0 -d 1 -p tcp -e 1060 -c 2 -a 0 -i 10 -k RTR
h -t 12.470732221 -s 0 -d 1 -p tcp -e 1060 -c 2 -a 0 -i 10 -k RTR
r -t 12.471021546 -s 1 -d -1 -p ACK -e 38 -c 2 -a 0 -i 0 -k MAC
+ -t 12.471171221 -s 0 -d -1 -p RTS -e 44 -c 2 -a 0 -i 0 -k MAC 
- -t 12.471171221 -s 0 -d -1 -p RTS -e 44 -c 2 -a 0 -i 0 -k MAC
h -t 12.471171221 -s 0 -d -1 -p RTS -e 44 -c 2 -a 0 -i 0 -k MAC
r -t 12.471523546 -s 1 -d -1 -p RTS -e 44 -c 2 -a 0 -i 0 -k MAC
+ -t 12.471533546 -s 1 -d -1 -p CTS -e 38 -c 2 -a 0 -i 0 -k MAC 
- -t 12.471533546 -s 1 -d -1 -p CTS -e 38 -c 2 -a 0 -i 0 -k MAC
h -t 12.471533546 -s 1 -d -1 -p CTS -e 38 -c 2 -a 0 -i 0 -k MAC
r -t 12.471837872 -s 0 -d -1 -p CTS -e 38 -c 2 -a 0 -i 0 -k MAC
+ -t 12.471847872 -s 0 -d 1 -p tcp -e 1118 -c 2 -a 0 -i 10 -k MAC 
- -t 12.471847872 -s 0 -d 1 -p tcp -e 1118 -c 2 -a 0 -i 10 -k MAC
h -t 12.471847872 -s 0 -d 1 -p tcp -e 1118 -c 2 -a 0 -i 10 -k MAC
r -t 12.480792198 -s 1 -d 1 -p tcp -e 1060 -c 2 -a 0 -i 10 -k MAC
+ -t 12.480802198 -s 1 -d -1 -p ACK -e 38 -c 2 -a 0 -i 0 -k MAC 
- -t 12.480802198 -s 1 -d -1 -p ACK -e 38 -c 2 -a 0 -i 0 -k MAC
h -t 12.480802198 -s 1 -d -1 -p ACK -e 38 -c 2 -a 0 -i 0 -k MAC
r -t 12.480817198 -s 1 -d 1 -p tcp -e 1060 -c 2 -a 0 -i 10 -k AGT
+ -t 12.480817198 -s 1 -d -1 -p ack -e 40 -c 2 -a 0 -i 11 -k AGT 
- -t 12.480817198 -s 1 -d -1 -p ack -e 40 -c 2 -a 0 -i 11 -k AGT
h -t 12.480817198 -s 1 -d -1 -p ack -e 40 -c 2 -a 0 -i 11 -k AGT
+ -t 12.480817198 -s 1 -d 0 -p ack -e 60 -c 2 -a 0 -i 11 -k RTR 
- -t 12.480817198 -s 1 -d 0 -p ack -e 60 -c 2 -a 0 -i 11 -k RTR
h -t 12.480817198 -s 1 -d 0 -p ack -e 60 -c 2 -a 0 -i 11 -k RTR
r -t 12.481106524 -s 0 -d -1 -p ACK -e 38 -c 2 -a 0 -i 0 -k MAC
+ -t 12.481576198 -s 1 -d -1 -p RTS -e 44 -c 2 -a 0 -i 0 -k MAC 
- -t 12.481576198 -s 1 -d -1 -p RTS -e 44 -c 2 -a 0 -i 0 -k MAC
h -t 12.481576198 -s 1 -d -1 -p RTS -e 44 -c 2 -a 0 -i 0 -k MAC
r -t 12.481928524 -s 0 -d -1 -p RTS -e 44 -c 2 -a 0 -i 0 -k MAC
+ -t 12.481938524 -s 0 -d -1 -p CTS -e 38 -c 2 -a 0 -i 0 -k MAC 
- -t 12.481938524 -s 0 -d -1 -p CTS -e 38 -c 2 -a 0 -i 0 -k MAC
h -t 12.481938524 -s 0 -d -1 -p CTS -e 38 -c 2 -a 0 -i 0 -k MAC
r -t 12.482242850 -s 1 -d -1 -p CTS -e 38 -c 2 -a 0 -i 0 -k MAC
+ -t 12.482252850 -s 1 -d 0 -p ack -e 118 -c 2 -a 0 -i 11 -k MAC 
- -t 12.482252850 -s 1 -d 0 -p ack -e 118 -c 2 -a 0 -i 11 -k MAC
h -t 12.482252850 -s 1 -d 0 -p ack -e 118 -c 2 -a 0 -i 11 -k MAC
r -t 12.483197176 -s 0 -d 0 -p ack -e 60 -c 2 -a 0 -i 11 -k MAC
+ -t 12.483207176 -s 0 -d -1 -p ACK -e 38 -c 2 -a 0 -i 0 -k MAC 
- -t 12.483207176 -s 0 -d -1 -p ACK -e 38 -c 2 -a 0 -i 0 -k MAC
h -t 12.483207176 -s 0 -d -1 -p ACK -e 38 -c 2 -a 0 -i 0 -k MAC
r -t 12.483222176 -s 0 -d 0 -p ack -e 60 -c 2 -a 0 -i 11 -k AGT
+ -t 12.483222176 -s 0 -d -1 -p tcp -e 1040 -c 2 -a 0 -i 12 -k AGT 
- -t 12.483222176 -s 0 -d -1 -p tcp -e 1040 -c 2 -a 0 -i 12 -k AGT
h -t 12.483222176 -s 0 -d -1 -p tcp -e 1040 -c 2 -a 0 -i 12 -k AGT
+ -t 12.483222176 -s 0 -d 1 -p tcp -e 1060 -c 2 -a 0 -i 12 -k RTR 
- -t 12.483222176 -s 0 -d 1 -p tcp -e 1060 -c 2 -a 0 -i 12 -k RTR
h -t 12.483222176 -s 0 -d 1 -p tcp -e 1060 -c 2 -a 0 -i 12 -k RTR
+ -t 12.483222176 -s 0 -d -1 -p tcp -e 1040 -c 2 -a 0 -i 13 -k AGT 
- -t 12.483222176 -s 0 -d -1 -p tcp -e 1040 -c 2 -a 0 -i 13 -k AGT
h -t 12.483222176 -s 0 -d -1 -p tcp -e 1040 -c 2 -a 0 -i 13 -k AGT
+ -t 12.483222176 -s 0 -d 1 -p tcp -e 1060 -c 2 -a 0 -i 13 -k RTR 
- -t 12.483222176 -s 0 -d 1 -p tcp -e 1060 -c 2 -a 0 -i 13 -k RTR
h -t 12.483222176 -s 0 -d 1 -p tcp -e 1060 -c 2 -a 0 -i 13 -k RTR
r -t 12.483511501 -s 1 -d -1 -p ACK -e 38 -c 2 -a 0 -i 0 -k MAC
+ -t 12.483761176 -s 0 -d -1 -p RTS -e 44 -c 2 -a 0 -i 0 -k MAC 
- -t 12.483761176 -s 0 -d -1 -p RTS -e 44 -c 2 -a 0 -i 0 -k MAC
h -t 12.483761176 -s 0 -d -1 -p RTS -e 44 -c 2 -a 0 -i 0 -k MAC
r -t 12.484113501 -s 1 -d -1 -p RTS -e 44 -c 2 -a 0 -i 0 -k MAC
+ -t 12.484123501 -s 1 -d -1 -p CTS -e 38 -c 2 -a 0 -i 0 -k MAC 
- -t 12.484123501 -s 1 -d -1 -p CTS -e 38 -c 2 -a 0 -i 0 -k MAC
h -t 12.484123501 -s 1 -d -1 -p CTS -e 38 -c 2 -a 0 -i 0 -k MAC
r -t 12.484427827 -s 0 -d -1 -p CTS -e 38 -c 2 -a 0 -i 0 -k MAC
+ -t 12.484437827 -s 0 -d 1 -p tcp -e 1118 -c 2 -a 0 -i 12 -k MAC 
- -t 12.484437827 -s 0 -d 1 -p tcp -e 1118 -c 2 -a 0 -i 12 -k MAC
h -t 12.484437827 -s 0 -d 1 -p tcp -e 1118 -c 2 -a 0 -i 12 -k MAC
r -t 12.493382153 -s 1 -d 1 -p tcp -e 1060 -c 2 -a 0 -i 12 -k MAC
+ -t 12.493392153 -s 1 -d -1 -p ACK -e 38 -c 2 -a 0 -i 0 -k MAC 
- -t 12.493392153 -s 1 -d -1 -p ACK -e 38 -c 2 -a 0 -i 0 -k MAC
h -t 12.493392153 -s 1 -d -1 -p ACK -e 38 -c 2 -a 0 -i 0 -k MAC
r -t 12.493407153 -s 1 -d 1 -p tcp -e 1060 -c 2 -a 0 -i 12 -k AGT
+ -t 12.493407153 -s 1 -d -1 -p ack -e 40 -c 2 -a 0 -i 14 -k AGT 
- -t 12.493407153 -s 1 -d -1 -p ack -e 40 -c 2 -a 0 -i 14 -k AGT
h -t 12.493407153 -s 1 -d -1 -p ack -e 40 -c 2 -a 0 -i 14 -k AGT
+ -t 12.493407153 -s 1 -d 0 -p ack -e 60 -c 2 -a 0 -i 14 -k RTR 
- -t 12.493407153 -s 1 -d 0 -p ack -e 60 -c 2 -a 0 -i 14 -k RTR
h -t 12.493407153 -s 1 -d 0 -p ack -e 60 -c 2 -a 0 -i 14 -k RTR
r -t 12.493696479 -s 0 -d -1 -p ACK -e 38 -c 2 -a 0 -i 0 -k MAC
+ -t 12.493806479 -s 0 -d -1 -p RTS -e 44 -c 2 -a 0 -i 0 -k MAC 
- -t 12.493806479 -s 0 -d -1 -p RTS -e 44 -c 2 -a 0 -i 0 -k MAC
h -t 12.493806479 -s 0 -d -1 -p RTS -e 44 -c 2 -a 0 -i 0 -k MAC
r -t 12.494158805 -s 1 -d -1 -p RTS -e 44 -c 2 -a 0 -i 0 -k MAC
+ -t 12.494168805 -s 1 -d -1 -p CTS -e 38 -c 2 -a 0 -i 0 -k MAC 
- -t 12.494168805 -s 1 -d -1 -p CTS -e 38 -c 2 -a 0 -i 0 -k MAC
h -t 12.494168805 -s 1 -d -1 -p CTS -e 38 -c 2 -a 0 -i 0 -k MAC
r -t 12.494473131 -s 0 -d -1 -p CTS -e 38 -c 2 -a 0 -i 0 -k MAC
+ -t 12.494483131 -s 0 -d 1 -p tcp -e 1118 -c 2 -a 0 -i 13 -k MAC 
- -t 12.494483131 -s 0 -d 1 -p tcp -e 1118 -c 2 -a 0 -i 13 -k MAC
h -t 12.494483131 -s 0 -d 1 -p tcp -e 1118 -c 2 -a 0 -i 13 -k MAC
r -t 12.503427457 -s 1 -d 1 -p tcp -e 1060 -c 2 -a 0 -i 13 -k MAC
+ -t 12.503437457 -s 1 -d -1 -p ACK -e 38 -c 2 -a 0 -i 0 -k MAC 
- -t 12.503437457 -s 1 -d -1 -p ACK -e 38 -c 2 -a 0 -i 0 -k MAC
h -t 12.503437457 -s 1 -d -1 -p ACK -e 38 -c 2 -a 0 -i 0 -k MAC
r -t 12.503452457 -s 1 -d 1 -p tcp -e 1060 -c 2 -a 0 -i 13 -k AGT
+ -t 12.503452457 -s 1 -d -1 -p ack -e 40 -c 2 -a 0 -i 15 -k AGT 
- -t 12.503452457 -s 1 -d -1 -p ack -e 40 -c 2 -a 0 -i 15 -k AGT
h -t 12.503452457 -s 1 -d -1 -p ack -e 40 -c 2 -a 0 -i 15 -k AGT
+ -t 12.503452457 -s 1 -d 0 -p ack -e 60 -c 2 -a 0 -i 15 -k RTR 
- -t 12.503452457 -s 1 -d 0 -p ack -e 60 -c 2 -a 0 -i 15 -k RTR
h -t 12.503452457 -s 1 -d 0 -p ack -e 60 -c 2 -a 0 -i 15 -k RTR
r -t 12.503741783 -s 0 -d -1 -p ACK -e 38 -c 2 -a 0 -i 0 -k MAC
+ -t 12.504111457 -s 1 -d -1 -p RTS -e 44 -c 2 -a 0 -i 0 -k MAC 
- -t 12.504111457 -s 1 -d -1 -p RTS -e 44 -c 2 -a 0 -i 0 -k MAC
h -t 12.504111457 -s 1 -d -1 -p RTS -e 44 -c 2 -a 0 -i 0 -k MAC
r -t 12.504463783 -s 0 -d -1 -p RTS -e 44 -c 2 -a 0 -i 0 -k MAC
+ -t 12.504473783 -s 0 -d -1 -p CTS -e 38 -c 2 -a 0 -i 0 -k MAC 
- -t 12.504473783 -s 0 -d -1 -p CTS -e 38 -c 2 -a 0 -i 0 -k MAC
h -t 12.504473783 -s 0 -d -1 -p CTS -e 38 -c 2 -a 0 -i 0 -k MAC
r -t 12.504778110 -s 1 -d -1 -p CTS -e 38 -c 2 -a 0 -i 0 -k MAC
+ -t 12.504788110 -s 1 -d 0 -p ack -e 118 -c 2 -a 0 -i 14 -k MAC 
- -t 12.504788110 -s 1 -d 0 -p ack -e 118 -c 2 -a 0 -i 14 -k MAC
h -t 12.504788110 -s 1 -d 0 -p ack -e 118 -c 2 -a 0 -i 14 -k MAC
r -t 12.505732436 -s 0 -d 0 -p ack -e 60 -c 2 -a 0 -i 14 -k MAC
+ -t 12.505742436 -s 0 -d -1 -p ACK -e 38 -c 2 -a 0 -i 0 -k MAC 
- -t 12.505742436 -s 0 -d -1 -p ACK -e 38 -c 2 -a 0 -i 0 -k MAC
h -t 12.505742436 -s 0 -d -1 -p ACK -e 38 -c 2 -a 0 -i 0 -k MAC
r -t 12.505757436 -s 0 -d 0 -p ack -e 60 -c 2 -a 0 -i 14 -k AGT
+ -t 12.505757436 -s 0 -d -1 -p tcp -e 1040 -c 2 -a 0 -i 16 -k AGT 
- -t 12.505757436 -s 0 -d -1 -p tcp -e 1040 -c 2 -a 0 -i 16 -k AGT
h -t 12.505757436 -s 0 -d -1 -p tcp -e 1040 -c 2 -a 0 -i 16 -k AGT
+ -t 12.505757436 -s 0 -d 1 -p tcp -e 1060 -c 2 -a 0 -i 16 -k RTR 
- -t 12.505757436 -s 0 -d 1 -p tcp -e 1060 -c 2 -a 0 -i 16 -k RTR
h -t 12.505757436 -s 0 -d 1 -p tcp -e 1060 -c 2 -a 0 -i 16 -k RTR
r -t 12.506046762 -s 1 -d -1 -p ACK -e 38 -c 2 -a 0 -i 0 -k MAC
+ -t 12.506436436 -s 0 -d -1 -p RTS -e 44 -c 2 -a 0 -i 0 -k MAC 
- -t 12.506436436 -s 0 -d -1 -p RTS -e 44 -c 2 -a 0 -i 0 -k MAC
h -t 12.506436436 -s 0 -d -1 -p RTS -e 44 -c 2 -a 0 -i 0 -k MAC
r -t 12.506788762 -s 1 -d -1 -p RTS -e 44 -c 2 -a 0 -i 0 -k MAC
+ -t 12.506798762 -s 1 -d -1 -p CTS -e 38 -c 2 -a 0 -i 0 -k MAC 
- -t 12.506798762 -s 1 -d -1 -p CTS -e 38 -c 2 -a 0 -i 0 -k MAC
h -t 12.506798762 -s 1 -d -1 -p CTS -e 38 -c 2 -a 0 -i 0 -k MAC
r -t 12.507103088 -s 0 -d -1 -p CTS -e 38 -c 2 -a 0 -i 0 -k MAC
+ -t 12.507113088 -s 0 -d 1 -p tcp -e 1118 -c 2 -a 0 -i 16 -k MAC 
- -t 12.507113088 -s 0 -d 1 -p tcp -e 1118 -c 2 -a 0 -i 16 -k MAC
h -t 12.507113088 -s 0 -d 1 -p tcp -e 1118 -c 2 -a 0 -i 16 -k MAC
r -t 12.516057414 -s 1 -d 1 -p tcp -e 1060 -c 2 -a 0 -i 16 -k MAC
+ -t 12.516067414 -s 1 -d -1 -p ACK -e 38 -c 2 -a 0 -i 0 -k MAC 
- -t 12.516067414 -s 1 -d -1 -p ACK -e 38 -c 2 -a 0 -i 0 -k MAC
h -t 12.516067414 -s 1 -d -1 -p ACK -e 38 -c 2 -a 0 -i 0 -k MAC
r -t 12.516082414 -s 1 -d 1 -p tcp -e 1060 -c 2 -a 0 -i 16 -k AGT
+ -t 12.516082414 -s 1 -d -1 -p ack -e 40 -c 2 -a 0 -i 17 -k AGT 
- -t 12.516082414 -s 1 -d -1 -p ack -e 40 -c 2 -a 0 -i 17 -k AGT
h -t 12.516082414 -s 1 -d -1 -p ack -e 40 -c 2 -a 0 -i 17 -k AGT
+ -t 12.516082414 -s 1 -d 0 -p ack -e 60 -c 2 -a 0 -i 17 -k RTR 
- -t 12.516082414 -s 1 -d 0 -p ack -e 60 -c 2 -a 0 -i 17 -k RTR
h -t 12.516082414 -s 1 -d 0 -p ack -e 60 -c 2 -a 0 -i 17 -k RTR
r -t 12.516371740 -s 0 -d -1 -p ACK -e 38 -c 2 -a 0 -i 0 -k MAC
+ -t 12.516581414 -s 1 -d -1 -p RTS -e 44 -c 2 -a 0 -i 0 -k MAC 
- -t 12.516581414 -s 1 -d -1 -p RTS -e 44 -c 2 -a 0 -i 0 -k MAC
h -t 12.516581414 -s 1 -d -1 -p RTS -e 44 -c 2 -a 0 -i 0 -k MAC
r -t 12.516933740 -s 0 -d -1 -p RTS -e 44 -c 2 -a 0 -i 0 -k MAC
+ -t 12.516943740 -s 0 -d -1 -p CTS -e 38 -c 2 -a 0 -i 0 -k MAC 
- -t 12.516943740 -s 0 -d -1 -p CTS -e 38 -c 2 -a 0 -i 0 -k MAC
h -t 12.516943740 -s 0 -d -1 -p CTS -e 38 -c 2 -a 0 -i 0 -k MAC
r -t 12.517248067 -s 1 -d -1 -p CTS -e 38 -c 2 -a 0 -i 0 -k MAC
+ -t 12.517258067 -s 1 -d 0 -p ack -e 118 -c 2 -a 0 -i 15 -k MAC 
- -t 12.517258067 -s 1 -d 0 -p ack -e 118 -c 2 -a 0 -i 15 -k MAC
h -t 12.517258067 -s 1 -d 0 -p ack -e 118 -c 2 -a 0 -i 15 -k MAC
r -t 12.518202393 -s 0 -d 0 -p ack -e 60 -c 2 -a 0 -i 15 -k MAC
+ -t 12.518212393 -s 0 -d -1 -p ACK -e 38 -c 2 -a 0 -i 0 -k MAC 
- -t 12.518212393 -s 0 -d -1 -p ACK -e 38 -c 2 -a 0 -i 0 -k MAC
h -t 12.518212393 -s 0 -d -1 -p ACK -e 38 -c 2 -a 0 -i 0 -k MAC
r -t 12.518227393 -s 0 -d 0 -p ack -e 60 -c 2 -a 0 -i 15 -k AGT
+ -t 12.518227393 -s 0 -d -1 -p tcp -e 1040 -c 2 -a 0 -i 18 -k AGT 
- -t 12.518227393 -s 0 -d -1 -p tcp -e 1040 -c 2 -a 0 -i 18 -k AGT
h -t 12.518227393 -s 0 -d -1 -p tcp -e 1040 -c 2 -a 0 -i 18 -k AGT
+ -t 12.518227393 -s 0 -d 1 -p tcp -e 1060 -c 2 -a 0 -i 18 -k RTR 
- -t 12.518227393 -s 0 -d 1 -p tcp -e 1060 -c 2 -a 0 -i 18 -k RTR
h -t 12.518227393 -s 0 -d 1 -p tcp -e 1060 -c 2 -a 0 -i 18 -k RTR
r -t 12.518516719 -s 1 -d -1 -p ACK -e 38 -c 2 -a 0 -i 0 -k MAC
+ -t 12.518686393 -s 0 -d -1 -p RTS -e 44 -c 2 -a 0 -i 0 -k MAC 
- -t 12.518686393 -s 0 -d -1 -p RTS -e 44 -c 2 -a 0 -i 0 -k MAC
h -t 12.518686393 -s 0 -d -1 -p RTS -e 44 -c 2 -a 0 -i 0 -k MAC
r -t 12.519038719 -s 1 -d -1 -p RTS -e 44 -c 2 -a 0 -i 0 -k MAC
+ -t 12.519048719 -s 1 -d -1 -p CTS -e 38 -c 2 -a 0 -i 0 -k MAC 
- -t 12.519048719 -s 1 -d -1 -p CTS -e 38 -c 2 -a 0 -i 0 -k MAC
h -t 12.519048719 -s 1 -d -1 -p CTS -e 38 -c 2 -a 0 -i 0 -k MAC
r -t 12.519353046 -s 0 -d -1 -p CTS -e 38 -c 2 -a 0 -i 0 -k MAC
+ -t 12.519363046 -s 0 -d 1 -p tcp -e 1118 -c 2 -a 0 -i 18 -k MAC 
- -t 12.519363046 -s 0 -d 1 -p tcp -e 1118 -c 2 -a 0 -i 18 -k MAC
h -t 12.519363046 -s 0 -d 1 -p tcp -e 1118 -c 2 -a 0 -i 18 -k MAC
r -t 12.528307372 -s 1 -d 1 -p tcp -e 1060 -c 2 -a 0 -i 18 -k MAC
+ -t 12.528317372 -s 1 -d -1 -p ACK -e 38 -c 2 -a 0 -i 0 -k MAC 
- -t 12.528317372 -s 1 -d -1 -p ACK -e 38 -c 2 -a 0 -i 0 -k MAC
h -t 12.528317372 -s 1 -d -1 -p ACK -e 38 -c 2 -a 0 -i 0 -k MAC
r -t 12.528332372 -s 1 -d 1 -p tcp -e 1060 -c 2 -a 0 -i 18 -k AGT
+ -t 12.528332372 -s 1 -d -1 -p ack -e 40 -c 2 -a 0 -i 19 -k AGT 
- -t 12.528332372 -s 1 -d -1 -p ack -e 40 -c 2 -a 0 -i 19 -k AGT
h -t 12.528332372 -s 1 -d -1 -p ack -e 40 -c 2 -a 0 -i 19 -k AGT
+ -t 12.528332372 -s 1 -d 0 -p ack -e 60 -c 2 -a 0 -i 19 -k RTR 
- -t 12.528332372 -s 1 -d 0 -p ack -e 60 -c 2 -a 0 -i 19 -k RTR
h -t 12.528332372 -s 1 -d 0 -p ack -e 60 -c 2 -a 0 -i 19 -k RTR
r -t 12.528621698 -s 0 -d -1 -p ACK -e 38 -c 2 -a 0 -i 0 -k MAC
+ -t 12.528731372 -s 1 -d -1 -p RTS -e 44 -c 2 -a 0 -i 0 -k MAC 
- -t 12.528731372 -s 1 -d -1 -p RTS -e 44 -c 2 -a 0 -i 0 -k MAC
h -t 12.528731372 -s 1 -d -1 -p RTS -e 44 -c 2 -a 0 -i 0 -k MAC
r -t 12.529083698 -s 0 -d -1 -p RTS -e 44 -c 2 -a 0 -i 0 -k MAC
+ -t 12.529093698 -s 0 -d -1 -p CTS -e 38 -c 2 -a 0 -i 0 -k MAC 
- -t 12.529093698 -s 0 -d -1 -p CTS -e 38 -c 2 -a 0 -i 0 -k MAC
h -t 12.529093698 -s 0 -d -1 -p CTS -e 38 -c 2 -a 0 -i 0 -k MAC
r -t 12.529398025 -s 1 -d -1 -p CTS -e 38 -c 2 -a 0 -i 0 -k MAC
+ -t 12.529408025 -s 1 -d 0 -p ack -e 118 -c 2 -a 0 -i 17 -k MAC 
- -t 12.529408025 -s 1 -d 0 -p ack -e 118 -c 2 -a 0 -i 17 -k MAC
h -t 12.529408025 -s 1 -d 0 -p ack -e 118 -c 2 -a 0 -i 17 -k MAC
r -t 12.530352351 -s 0 -d 0 -p ack -e 60 -c 2 -a 0 -i 17 -k MAC
+ -t 12.530362351 -s 0 -d -1 -p ACK -e 38 -c 2 -a 0 -i 0 -k MAC 
- -t 12.530362351 -s 0 -d -1 -p ACK -e 38 -c 2 -a 0 -i 0 -k MAC
h -t 12.530362351 -s 0 -d -1 -p ACK -e 38 -c 2 -a 0 -i 0 -k MAC
r -t 12.530377351 -s 0 -d 0 -p ack -e 60 -c 2 -a 0 -i 17 -k AGT
+ -t 12.530377351 -s 0 -d -1 -p tcp -e 1040 -c 2 -a 0 -i 20 -k AGT 
- -t 12.530377351 -s 0 -d -1 -p tcp -e 1040 -c 2 -a 0 -i 20 -k AGT
h -t 12.530377351 -s 0 -d -1 -p tcp -e 1040 -c 2 -a 0 -i 20 -k AGT
+ -t 12.530377351 -s 0 -d 1 -p tcp -e 1060 -c 2 -a 0 -i 20 -k RTR 
- -t 12.530377351 -s 0 -d 1 -p tcp -e 1060 -c 2 -a 0 -i 20 -k RTR
h -t 12.530377351 -s 0 -d 1 -p tcp -e 1060 -c 2 -a 0 -i 20 -k RTR
+ -t 12.530377351 -s 0 -d -1 -p tcp -e 1040 -c 2 -a 0 -i 21 -k AGT 
- -t 12.530377351 -s 0 -d -1 -p tcp -e 1040 -c 2 -a 0 -i 21 -k AGT
h -t 12.530377351 -s 0 -d -1 -p tcp -e 1040 -c 2 -a 0 -i 21 -k AGT
+ -t 12.530377351 -s 0 -d 1 -p tcp -e 1060 -c 2 -a 0 -i 21 -k RTR 
- -t 12.530377351 -s 0 -d 1 -p tcp -e 1060 -c 2 -a 0 -i 21 -k RTR
h -t 12.530377351 -s 0 -d 1 -p tcp -e 1060 -c 2 -a 0 -i 21 -k RTR
r -t 12.530666678 -s 1 -d -1 -p ACK -e 38 -c 2 -a 0 -i 0 -k MAC
+ -t 12.530936351 -s 0 -d -1 -p RTS -e 44 -c 2 -a 0 -i 0 -k MAC 
- -t 12.530936351 -s 0 -d -1 -p RTS -e 44 -c 2 -a 0 -i 0 -k MAC
h -t 12.530936351 -s 0 -d -1 -p RTS -e 44 -c 2 -a 0 -i 0 -k MAC
r -t 12.531288678 -s 1 -d -1 -p RTS -e 44 -c 2 -a 0 -i 0 -k MAC
+ -t 12.531298678 -s 1 -d -1 -p CTS -e 38 -c 2 -a 0 -i 0 -k MAC 
- -t 12.531298678 -s 1 -d -1 -p CTS -e 38 -c 2 -a 0 -i 0 -k MAC
h -t 12.531298678 -s 1 -d -1 -p CTS -e 38 -c 2 -a 0 -i 0 -k MAC
r -t 12.531603004 -s 0 -d -1 -p CTS -e 38 -c 2 -a 0 -i 0 -k MAC
+ -t 12.531613004 -s 0 -d 1 -p tcp -e 1118 -c 2 -a 0 -i 20 -k MAC 
- -t 12.531613004 -s 0 -d 1 -p tcp -e 1118 -c 2 -a 0 -i 20 -k MAC
h -t 12.531613004 -s 0 -d 1 -p tcp -e 1118 -c 2 -a 0 -i 20 -k MAC
r -t 12.540557330 -s 1 -d 1 -p tcp -e 1060 -c 2 -a 0 -i 20 -k MAC
+ -t 12.540567330 -s 1 -d -1 -p ACK -e 38 -c 2 -a 0 -i 0 -k MAC 
- -t 12.540567330 -s 1 -d -1 -p ACK -e 38 -c 2 -a 0 -i 0 -k MAC
h -t 12.540567330 -s 1 -d -1 -p ACK -e 38 -c 2 -a 0 -i 0 -k MAC
r -t 12.540582330 -s 1 -d 1 -p tcp -e 1060 -c 2 -a 0 -i 20 -k AGT
+ -t 12.540582330 -s 1 -d -1 -p ack -e 40 -c 2 -a 0 -i 22 -k AGT 
- -t 12.540582330 -s 1 -d -1 -p ack -e 40 -c 2 -a 0 -i 22 -k AGT
h -t 12.540582330 -s 1 -d -1 -p ack -e 40 -c 2 -a 0 -i 22 -k AGT
+ -t 12.540582330 -s 1 -d 0 -p ack -e 60 -c 2 -a 0 -i 22 -k RTR 
- -t 12.540582330 -s 1 -d 0 -p ack -e 60 -c 2 -a 0 -i 22 -k RTR
h -t 12.540582330 -s 1 -d 0 -p ack -e 60 -c 2 -a 0 -i 22 -k RTR
r -t 12.540871657 -s 0 -d -1 -p ACK -e 38 -c 2 -a 0 -i 0 -k MAC
+ -t 12.540921657 -s 0 -d -1 -p RTS -e 44 -c 2 -a 0 -i 0 -k MAC 
- -t 12.540921657 -s 0 -d -1 -p RTS -e 44 -c 2 -a 0 -i 0 -k MAC
h -t 12.540921657 -s 0 -d -1 -p RTS -e 44 -c 2 -a 0 -i 0 -k MAC
r -t 12.541273984 -s 1 -d -1 -p RTS -e 44 -c 2 -a 0 -i 0 -k MAC
+ -t 12.541283984 -s 1 -d -1 -p CTS -e 38 -c 2 -a 0 -i 0 -k MAC 
- -t 12.541283984 -s 1 -d -1 -p CTS -e 38 -c 2 -a 0 -i 0 -k MAC
h -t 12.541283984 -s 1 -d -1 -p CTS -e 38 -c 2 -a 0 -i 0 -k MAC
r -t 12.541588310 -s 0 -d -1 -p CTS -e 38 -c 2 -a 0 -i 0 -k MAC
+ -t 12.541598310 -s 0 -d 1 -p tcp -e 1118 -c 2 -a 0 -i 21 -k MAC 
- -t 12.541598310 -s 0 -d 1 -p tcp -e 1118 -c 2 -a 0 -i 21 -k MAC
h -t 12.541598310 -s 0 -d 1 -p tcp -e 1118 -c 2 -a 0 -i 21 -k MAC
r -t 12.550542637 -s 1 -d 1 -p tcp -e 1060 -c 2 -a 0 -i 21 -k MAC
+ -t 12.550552637 -s 1 -d -1 -p ACK -e 38 -c 2 -a 0 -i 0 -k MAC 
- -t 12.550552637 -s 1 -d -1 -p ACK -e 38 -c 2 -a 0 -i 0 -k MAC
h -t 12.550552637 -s 1 -d -1 -p ACK -e 38 -c 2 -a 0 -i 0 -k MAC
r -t 12.550567637 -s 1 -d 1 -p tcp -e 1060 -c 2 -a 0 -i 21 -k AGT
+ -t 12.550567637 -s 1 -d -1 -p ack -e 40 -c 2 -a 0 -i 23 -k AGT 
- -t 12.550567637 -s 1 -d -1 -p ack -e 40 -c 2 -a 0 -i 23 -k AGT
h -t 12.550567637 -s 1 -d -1 -p ack -e 40 -c 2 -a 0 -i 23 -k AGT
+ -t 12.550567637 -s 1 -d 0 -p ack -e 60 -c 2 -a 0 -i 23 -k RTR 
- -t 12.550567637 -s 1 -d 0 -p ack -e 60 -c 2 -a 0 -i 23 -k RTR
h -t 12.550567637 -s 1 -d 0 -p ack -e 60 -c 2 -a 0 -i 23 -k RTR
r -t 12.550856963 -s 0 -d -1 -p ACK -e 38 -c 2 -a 0 -i 0 -k MAC
+ -t 12.551166637 -s 1 -d -1 -p RTS -e 44 -c 2 -a 0 -i 0 -k MAC 
- -t 12.551166637 -s 1 -d -1 -p RTS -e 44 -c 2 -a 0 -i 0 -k MAC
h -t 12.551166637 -s 1 -d -1 -p RTS -e 44 -c 2 -a 0 -i 0 -k MAC
r -t 12.551518963 -s 0 -d -1 -p RTS -e 44 -c 2 -a 0 -i 0 -k MAC
+ -t 12.551528963 -s 0 -d -1 -p CTS -e 38 -c 2 -a 0 -i 0 -k MAC 
- -t 12.551528963 -s 0 -d -1 -p CTS -e 38 -c 2 -a 0 -i 0 -k MAC
h -t 12.551528963 -s 0 -d -1 -p CTS -e 38 -c 2 -a 0 -i 0 -k MAC
r -t 12.551833290 -s 1 -d -1 -p CTS -e 38 -c 2 -a 0 -i 0 -k MAC
+ -t 12.551843290 -s 1 -d 0 -p ack -e 118 -c 2 -a 0 -i 19 -k MAC 
- -t 12.551843290 -s 1 -d 0 -p ack -e 118 -c 2 -a 0 -i 19 -k MAC
h -t 12.551843290 -s 1 -d 0 -p ack -e 118 -c 2 -a 0 -i 19 -k MAC
r -t 12.552787617 -s 0 -d 0 -p ack -e 60 -c 2 -a 0 -i 19 -k MAC
+ -t 12.552797617 -s 0 -d -1 -p ACK -e 38 -c 2 -a 0 -i 0 -k MAC 
- -t 12.552797617 -s 0 -d -1 -p ACK -e 38 -c 2 -a 0 -i 0 -k MAC
h -t 12.552797617 -s 0 -d -1 -p ACK -e 38 -c 2 -a 0 -i 0 -k MAC
r -t 12.552812617 -s 0 -d 0 -p ack -e 60 -c 2 -a 0 -i 19 -k AGT
+ -t 12.552812617 -s 0 -d -1 -p tcp -e 1040 -c 2 -a 0 -i 24 -k AGT 
- -t 12.552812617 -s 0 -d -1 -p tcp -e 1040 -c 2 -a 0 -i 24 -k AGT
h -t 12.552812617 -s 0 -d -1 -p tcp -e 1040 -c 2 -a 0 -i 24 -k AGT
+ -t 12.552812617 -s 0 -d 1 -p tcp -e 1060 -c 2 -a 0 -i 24 -k RTR 
- -t 12.552812617 -s 0 -d 1 -p tcp -e 1060 -c 2 -a 0 -i 24 -k RTR
h -t 12.552812617 -s 0 -d 1 -p tcp -e 1060 -c 2 -a 0 -i 24 -k RTR
r -t 12.553101943 -s 1 -d -1 -p ACK -e 38 -c 2 -a 0 -i 0 -k MAC
+ -t 12.553311943 -s 1 -d -1 -p RTS -e 44 -c 2 -a 0 -i 0 -k MAC 
- -t 12.553311943 -s 1 -d -1 -p RTS -e 44 -c 2 -a 0 -i 0 -k MAC
h -t 12.553311943 -s 1 -d -1 -p RTS -e 44 -c 2 -a 0 -i 0 -k MAC
r -t 12.553664270 -s 0 -d -1 -p RTS -e 44 -c 2 -a 0 -i 0 -k MAC
+ -t 12.553674270 -s 0 -d -1 -p CTS -e 38 -c 2 -a 0 -i 0 -k MAC 
- -t 12.553674270 -s 0 -d -1 -p CTS -e 38 -c 2 -a 0 -i 0 -k MAC
h -t 12.553674270 -s 0 -d -1 -p CTS -e 38 -c 2 -a 0 -i 0 -k MAC
r -t 12.553978597 -s 1 -d -1 -p CTS -e 38 -c 2 -a 0 -i 0 -k MAC
+ -t 12.553988597 -s 1 -d 0 -p ack -e 118 -c 2 -a 0 -i 22 -k MAC 
- -t 12.553988597 -s 1 -d 0 -p ack -e 118 -c 2 -a 0 -i 22 -k MAC
h -t 12.553988597 -s 1 -d 0 -p ack -e 118 -c 2 -a 0 -i 22 -k MAC
r -t 12.554932923 -s 0 -d 0 -p ack -e 60 -c 2 -a 0 -i 22 -k MAC
+ -t 12.554942923 -s 0 -d -1 -p ACK -e 38 -c 2 -a 0 -i 0 -k MAC 
- -t 12.554942923 -s 0 -d -1 -p ACK -e 38 -c 2 -a 0 -i 0 -k MAC
h -t 12.554942923 -s 0 -d -1 -p ACK -e 38 -c 2 -a 0 -i 0 -k MAC
r -t 12.554957923 -s 0 -d 0 -p ack -e 60 -c 2 -a 0 -i 22 -k AGT
+ -t 12.554957923 -s 0 -d -1 -p tcp -e 1040 -c 2 -a 0 -i 25 -k AGT 
- -t 12.554957923 -s 0 -d -1 -p tcp -e 1040 -c 2 -a 0 -i 25 -k AGT