s 0.036400876 _1_ RTR  --- 0 message 32 [0 0 0 0] ------- [1:255 -1:255 32 0] 
s 0.036675876 _1_ MAC  --- 0 message 90 [0 ffffffff 1 800] ------- [1:255 -1:255 32 0] 
s 0.182633994 _2_ RTR  --- 1 message 32 [0 0 0 0] ------- [2:255 -1:255 32 0] 
s 0.182948994 _2_ MAC  --- 1 message 90 [0 ffffffff 2 800] ------- [2:255 -1:255 32 0] 
r 0.183668994 _3_ MAC  --- 1 message 32 [0 ffffffff 2 800] ------- [2:255 -1:255 32 0] 
r 0.183669012 _0_ MAC  --- 1 message 32 [0 ffffffff 2 800] ------- [2:255 -1:255 32 0] 
r 0.183693994 _3_ RTR  --- 1 message 32 [0 ffffffff 2 800] ------- [2:255 -1:255 32 0] 
r 0.183694012 _0_ RTR  --- 1 message 32 [0 ffffffff 2 800] ------- [2:255 -1:255 32 0] 
s 0.882774710 _3_ RTR  --- 2 message 32 [0 0 0 0] ------- [3:255 -1:255 32 0] 
s 0.883209710 _3_ MAC  --- 2 message 90 [0 ffffffff 3 800] ------- [3:255 -1:255 32 0] 
r 0.883929710 _2_ MAC  --- 2 message 32 [0 ffffffff 3 800] ------- [3:255 -1:255 32 0] 
r 0.883929728 _0_ MAC  --- 2 message 32 [0 ffffffff 3 800] ------- [3:255 -1:255 32 0] 
r 0.883954710 _2_ RTR  --- 2 message 32 [0 ffffffff 3 800] ------- [3:255 -1:255 32 0] 
r 0.883954728 _0_ RTR  --- 2 message 32 [0 ffffffff 3 800] ------- [3:255 -1:255 32 0] 
s 1.115997999 _0_ RTR  --- 3 message 32 [0 0 0 0] ------- [0:255 -1:255 32 0] 
s 1.116412999 _0_ MAC  --- 3 message 90 [0 ffffffff 0 800] ------- [0:255 -1:255 32 0] 
r 1.117133017 _3_ MAC  --- 3 message 32 [0 ffffffff 0 800] ------- [0:255 -1:255 32 0] 
r 1.117133017 _2_ MAC  --- 3 message 32 [0 ffffffff 0 800] ------- [0:255 -1:255 32 0] 
r 1.117158017 _3_ RTR  --- 3 message 32 [0 ffffffff 0 800] ------- [0:255 -1:255 32 0] 
r 1.117158017 _2_ RTR  --- 3 message 32 [0 ffffffff 0 800] ------- [0:255 -1:255 32 0] 
M 2.00000 1 (390.00, 385.00, 0.00), (100.00, 40.00), 25.00
M 3.00000 0 (5.00, 2.00, 0.00), (300.00, 400.00), 40.00
s 4.000000000 _0_ AGT  --- 4 tcp 40 [0 0 0 0] ------- [0:0 1:0 32 0] [0 0] 0 0
r 4.000000000 _0_ RTR  --- 4 tcp 40 [0 0 0 0] ------- [0:0 1:0 32 0] [0 0] 0 0
s 7.000000000 _0_ AGT  --- 5 tcp 40 [0 0 0 0] ------- [0:0 1:0 32 0] [0 0] 0 0
r 7.000000000 _0_ RTR  --- 5 tcp 40 [0 0 0 0] ------- [0:0 1:0 32 0] [0 0] 0 0
M 10.00000 1 (261.31, 231.90, 0.00), (490.00, 480.00), 40.00
s 12.186274891 _0_ RTR  --- 7 message 32 [0 0 0 0] ------- [0:255 -1:255 32 0] 
s 12.186369891 _0_ MAC  --- 7 message 90 [0 ffffffff 0 800] ------- [0:255 -1:255 32 0] 
r 12.187090214 _1_ MAC  --- 7 message 32 [0 ffffffff 0 800] ------- [0:255 -1:255 32 0] 
r 12.187115214 _1_ RTR  --- 7 message 32 [0 ffffffff 0 800] ------- [0:255 -1:255 32 0] 
s 12.187181404 _3_ RTR  --- 6 message 32 [0 0 0 0] ------- [3:255 -1:255 32 0] 
s 12.187945132 _3_ MAC  --- 6 message 90 [0 ffffffff 3 800] ------- [3:255 -1:255 32 0] 
r 12.188665132 _2_ MAC  --- 6 message 32 [0 ffffffff 3 800] ------- [3:255 -1:255 32 0] 
r 12.188690132 _2_ RTR  --- 6 message 32 [0 ffffffff 3 800] ------- [3:255 -1:255 32 0] 
s 12.460636638 _1_ RTR  --- 8 message 32 [0 0 0 0] ------- [1:255 -1:255 32 0] 
s 12.461251638 _1_ MAC  --- 8 message 90 [0 ffffffff 1 800] ------- [1:255 -1:255 32 0] 
r 12.461971963 _0_ MAC  --- 8 message 32 [0 ffffffff 1 800] ------- [1:255 -1:255 32 0] 
r 12.461996963 _0_ RTR  --- 8 message 32 [0 ffffffff 1 800] ------- [1:255 -1:255 32 0] 
s 12.461996963 _0_ RTR  --- 4 tcp 80 [0 0 0 0] ------- [0:0 1:0 32 1] [0 0] 0 0
s 12.461996963 _0_ RTR  --- 5 tcp 80 [0 0 0 0] ------- [0:0 1:0 32 1] [0 0] 0 0
D 12.461996963 _0_ IFQ  ARP 4 tcp 80 [0 0 0 800] ------- [0:0 1:0 32 1] [0 0] 0 0
s 12.462091963 _0_ MAC  --- 0 ARP 86 [0 ffffffff 0 806] ------- [REQUEST 0/0 0/1]
r 12.462780289 _1_ MAC  --- 0 ARP 28 [0 ffffffff 0 806] ------- [REQUEST 0/0 0/1]
s 12.463129963 _0_ MAC  --- 0 ARP 86 [0 ffffffff 0 806] ------- [REQUEST 0/0 0/1]
s 12.463130289 _1_ MAC  --- 0 RTS 44 [52e 0 1 0] 
s 12.464932289 _1_ MAC  --- 0 RTS 44 [52e 0 1 0] 
r 12.465284615 _0_ MAC  --- 0 RTS 44 [52e 0 1 0] 
s 12.465294615 _0_ MAC  --- 0 CTS 38 [3f4 1 0 0] 
r 12.465598940 _1_ MAC  --- 0 CTS 38 [3f4 1 0 0] 
s 12.465608940 _1_ MAC  --- 0 ARP 86 [13a 0 1 806] ------- [REPLY 1/1 0/0]
r 12.466297266 _0_ MAC  --- 0 ARP 28 [13a 0 1 806] ------- [REPLY 1/1 0/0]
s 12.466307266 _0_ MAC  --- 0 ACK 38 [0 1 0 0] 
r 12.466611592 _1_ MAC  --- 0 ACK 38 [0 1 0 0] 
s 12.466741266 _0_ MAC  --- 0 RTS 44 [6ce 1 0 0] 
r 12.467093592 _1_ MAC  --- 0 RTS 44 [6ce 1 0 0] 
s 12.467103592 _1_ MAC  --- 0 CTS 38 [594 0 0 0] 
r 12.467407918 _0_ MAC  --- 0 CTS 38 [594 0 0 0] 
s 12.467417918 _0_ MAC  --- 5 tcp 138 [13a 1 0 800] ------- [0:0 1:0 32 1] [0 0] 0 0
r 12.468522243 _1_ MAC  --- 5 tcp 80 [13a 1 0 800] ------- [0:0 1:0 32 1] [0 0] 1 0
s 12.468532243 _1_ MAC  --- 0 ACK 38 [0 0 0 0] 
r 12.468547243 _1_ AGT  --- 5 tcp 80 [13a 1 0 800] ------- [0:0 1:0 32 1] [0 0] 1 0
s 12.468547243 _1_ AGT  --- 9 ack 40 [0 0 0 0] ------- [1:0 0:0 32 0] [0 0] 0 0
r 12.468547243 _1_ RTR  --- 9 ack 40 [0 0 0 0] ------- [1:0 0:0 32 0] [0 0] 0 0
s 12.468547243 _1_ RTR  --- 9 ack 60 [0 0 0 0] ------- [1:0 0:0 32 0] [0 0] 0 0
r 12.468836569 _0_ MAC  --- 0 ACK 38 [0 0 0 0] 
s 12.469086243 _1_ MAC  --- 0 RTS 44 [62e 0 1 0] 
r 12.469438569 _0_ MAC  --- 0 RTS 44 [62e 0 1 0] 
s 12.469448569 _0_ MAC  --- 0 CTS 38 [4f4 1 0 0] 
r 12.469752895 _1_ MAC  --- 0 CTS 38 [4f4 1 0 0] 
s 12.469762895 _1_ MAC  --- 9 ack 118 [13a 0 1 800] ------- [1:0 0:0 32 0] [0 0] 0 0
r 12.470707221 _0_ MAC  --- 9 ack 60 [13a 0 1 800] ------- [1:0 0:0 32 0] [0 0] 1 0
s 12.470717221 _0_ MAC  --- 0 ACK 38 [0 1 0 0] 
r 12.470732221 _0_ AGT  --- 9 ack 60 [13a 0 1 800] ------- [1:0 0:0 32 0] [0 0] 1 0
s 12.470732221 _0_ AGT  --- 10 tcp 1040 [0 0 0 0] ------- [0:0 1:0 32 0] [1 0] 0 0
r 12.470732221 _0_ RTR  --- 10 tcp 1040 [0 0 0 0] ------- [0:0 1:0 32 0] [1 0] 0 0
s 12.470732221 _0_ RTR  --- 10 tcp 1060 [0 0 0 0] ------- [0:0 1:0 32 1] [1 0] 0 0
r 12.471021546 _1_ MAC  --- 0 ACK 38 [0 1 0 0] 
s 12.471171221 _0_ MAC  --- 0 RTS 44 [256e 1 0 0] 
r 12.471523546 _1_ MAC  --- 0 RTS 44 [256e 1 0 0] 
s 12.471533546 _1_ MAC  --- 0 CTS 38 [2434 0 0 0] 
r 12.471837872 _0_ MAC  --- 0 CTS 38 [2434 0 0 0] 
s 12.471847872 _0_ MAC  --- 10 tcp 1118 [13a 1 0 800] ------- [0:0 1:0 32 1] [1 0] 0 0
r 12.480792198 _1_ MAC  --- 10 tcp 1060 [13a 1 0 800] ------- [0:0 1:0 32 1] [1 0] 1 0
s 12.480802198 _1_ MAC  --- 0 ACK 38 [0 0 0 0] 
r 12.480817198 _1_ AGT  --- 10 tcp 1060 [13a 1 0 800] ------- [0:0 1:0 32 1] [1 0] 1 0
s 12.480817198 _1_ AGT  --- 11 ack 40 [0 0 0 0] ------- [1:0 0:0 32 0] [1 0] 0 0
r 12.480817198 _1_ RTR  --- 11 ack 40 [0 0 0 0] ------- [1:0 0:0 32 0] [1 0] 0 0
s 12.480817198 _1_ RTR  --- 11 ack 60 [0 0 0 0] ------- [1:0 0:0 32 0] [1 0] 0 0
r 12.481106524 _0_ MAC  --- 0 ACK 38 [0 0 0 0] 
s 12.481576198 _1_ MAC  --- 0 RTS 44 [62e 0 1 0] 
r 12.481928524 _0_ MAC  --- 0 RTS 44 [62e 0 1 0] 
s 12.481938524 _0_ MAC  --- 0 CTS 38 [4f4 1 0 0] 
r 12.482242850 _1_ MAC  --- 0 CTS 38 [4f4 1 0 0] 
s 12.482252850 _1_ MAC  --- 11 ack 118 [13a 0 1 800] ------- [1:0 0:0 32 0] [1 0] 0 0
r 12.483197176 _0_ MAC  --- 11 ack 60 [13a 0 1 800] ------- [1:0 0:0 32 0] [1 0] 1 0
s 12.483207176 _0_ MAC  --- 0 ACK 38 [0 1 0 0] 
r 12.483222176 _0_ AGT  --- 11 ack 60 [13a 0 1 800] ------- [1:0 0:0 32 0] [1 0] 1 0
s 12.483222176 _0_ AGT  --- 12 tcp 1040 [0 0 0 0] ------- [0:0 1:0 32 0] [2 0] 0 0
r 12.483222176 _0_ RTR  --- 12 tcp 1040 [0 0 0 0] ------- [0:0 1:0 32 0] [2 0] 0 0
s 12.483222176 _0_ RTR  --- 12 tcp 1060 [0 0 0 0] ------- [0:0 1:0 32 1] [2 0] 0 0
s 12.483222176 _0_ AGT  --- 13 tcp 1040 [0 0 0 0] ------- [0:0 1:0 32 0] [3 0] 0 0
r 12.483222176 _0_ RTR  --- 13 tcp 1040 [0 0 0 0] ------- [0:0 1:0 32 0] [3 0] 0 0
s 12.483222176 _0_ RTR  --- 13 tcp 1060 [0 0 0 0] ------- [0:0 1:0 32 1] [3 0] 0 0
r 12.483511501 _1_ MAC  --- 0 ACK 38 [0 1 0 0] 
s 12.483761176 _0_ MAC  --- 0 RTS 44 [256e 1 0 0] 
r 12.484113501 _1_ MAC  --- 0 RTS 44 [256e 1 0 0] 
s 12.484123501 _1_ MAC  --- 0 CTS 38 [2434 0 0 0] 
r 12.484427827 _0_ MAC  --- 0 CTS 38 [2434 0 0 0] 
s 12.484437827 _0_ MAC  --- 12 tcp 1118 [13a 1 0 800] ------- [0:0 1:0 32 1] [2 0] 0 0
r 12.493382153 _1_ MAC  --- 12 tcp 1060 [13a 1 0 800] ------- [0:0 1:0 32 1] [2 0] 1 0
s 12.493392153 _1_ MAC  --- 0 ACK 38 [0 0 0 0] 
r 12.493407153 _1_ AGT  --- 12 tcp 1060 [13a 1 0 800] ------- [0:0 1:0 32 1] [2 0] 1 0
s 12.493407153 _1_ AGT  --- 14 ack 40 [0 0 0 0] ------- [1:0 0:0 32 0] [2 0] 0 0
r 12.493407153 _1_ RTR  --- 14 ack 40 [0 0 0 0] ------- [1:0 0:0 32 0] [2 0] 0 0
s 12.493407153 _1_ RTR  --- 14 ack 60 [0 0 0 0] ------- [1:0 0:0 32 0] [2 0] 0 0
r 12.493696479 _0_ MAC  --- 0 ACK 38 [0 0 0 0] 
s 12.493806479 _0_ MAC  --- 0 RTS 44 [256e 1 0 0] 
r 12.494158805 _1_ MAC  --- 0 RTS 44 [256e 1 0 0] 
s 12.494168805 _1_ MAC  --- 0 CTS 38 [2434 0 0 0] 
r 12.494473131 _0_ MAC  --- 0 CTS 38 [2434 0 0 0] 
s 12.494483131 _0_ MAC  --- 13 tcp 1118 [13a 1 0 800] ------- [0:0 1:0 32 1] [3 0] 0 0
r 12.503427457 _1_ MAC  --- 13 tcp 1060 [13a 1 0 800] ------- [0:0 1:0 32 1] [3 0] 1 0
s 12.503437457 _1_ MAC  --- 0 ACK 38 [0 0 0 0] 
r 12.503452457 _1_ AGT  --- 13 tcp 1060 [13a 1 0 800] ------- [0:0 1:0 32 1] [3 0] 1 0
s 12.503452457 _1_ AGT  --- 15 ack 40 [0 0 0 0] ------- [1:0 0:0 32 0] [3 0] 0 0
r 12.503452457 _1_ RTR  --- 15 ack 40 [0 0 0 0] ------- [1:0 0:0 32 0] [3 0] 0 0
s 12.503452457 _1_ RTR  --- 15 ack 60 [0 0 0 0] ------- [1:0 0:0 32 0] [3 0] 0 0
r 12.503741783 _0_ MAC  --- 0 ACK 38 [0 0 0 0] 
s 12.504111457 _1_ MAC  --- 0 RTS 44 [62e 0 1 0] 
r 12.504463783 _0_ MAC  --- 0 RTS 44 [62e 0 1 0] 
s 12.504473783 _0_ MAC  --- 0 CTS 38 [4f4 1 0 0] 
r 12.504778110 _1_ MAC  --- 0 CTS 38 [4f4 1 0 0] 
s 12.504788110 _1_ MAC  --- 14 ack 118 [13a 0 1 800] ------- [1:0 0:0 32 0] [2 0] 0 0
r 12.505732436 _0_ MAC  --- 14 ack 60 [13a 0 1 800] ------- [1:0 0:0 32 0] [2 0] 1 0
s 12.505742436 _0_ MAC  --- 0 ACK 38 [0 1 0 0] 
r 12.505757436 _0_ AGT  --- 14 ack 60 [13a 0 1 800] ------- [1:0 0:0 32 0] [2 0] 1 0
s 12.505757436 _0_ AGT  --- 16 tcp 1040 [0 0 0 0] ------- [0:0 1:0 32 0] [4 0] 0 0
r 12.505757436 _0_ RTR  --- 16 tcp 1040 [0 0 0 0] ------- [0:0 1:0 32 0] [4 0] 0 0
s 12.505757436 _0_ RTR  --- 16 tcp 1060 [0 0 0 0] ------- [0:0 1:0 32 1] [4 0] 0 0
r 12.506046762 _1_ MAC  --- 0 ACK 38 [0 1 0 0] 
s 12.506436436 _0_ MAC  --- 0 RTS 44 [256e 1 0 0] 
r 12.506788762 _1_ MAC  --- 0 RTS 44 [256e 1 0 0] 
s 12.506798762 _1_ MAC  --- 0 CTS 38 [2434 0 0 0] 
r 12.507103088 _0_ MAC  --- 0 CTS 38 [2434 0 0 0] 
s 12.507113088 _0_ MAC  --- 16 tcp 1118 [13a 1 0 800] ------- [0:0 1:0 32 1] [4 0] 0 0
r 12.516057414 _1_ MAC  --- 16 tcp 1060 [13a 1 0 800] ------- [0:0 1:0 32 1] [4 0] 1 0
s 12.516067414 _1_ MAC  --- 0 ACK 38 [0 0 0 0] 
r 12.516082414 _1_ AGT  --- 16 tcp 1060 [13a 1 0 800] ------- [0:0 1:0 32 1] [4 0] 1 0
s 12.516082414 _1_ AGT  --- 17 ack 40 [0 0 0 0] ------- [1:0 0:0 32 0] [4 0] 0 0
r 12.516082414 _1_ RTR  --- 17 ack 40 [0 0 0 0] ------- [1:0 0:0 32 0] [4 0] 0 0
s 12.516082414 _1_ RTR  --- 17 ack 60 [0 0 0 0] ------- [1:0 0:0 32 0] [4 0] 0 0
r 12.516371740 _0_ MAC  --- 0 ACK 38 [0 0 0 0] 
s 12.516581414 _1_ MAC  --- 0 RTS 44 [62e 0 1 0] 
r 12.516933740 _0_ MAC  --- 0 RTS 44 [62e 0 1 0] 
s 12.516943740 _0_ MAC  --- 0 CTS 38 [4f4 1 0 0] 
r 12.517248067 _1_ MAC  --- 0 CTS 38 [4f4 1 0 0] 
s 12.517258067 _1_ MAC  --- 15 ack 118 [13a 0 1 800] ------- [1:0 0:0 32 0] [3 0] 0 0
r 12.518202393 _0_ MAC  --- 15 ack 60 [13a 0 1 800] ------- [1:0 0:0 32 0] [3 0] 1 0
s 12.518212393 _0_ MAC  --- 0 ACK 38 [0 1 0 0] 
r 12.518227393 _0_ AGT  --- 15 ack 60 [13a 0 1 800] ------- [1:0 0:0 32 0] [3 0] 1 0
s 12.518227393 _0_ AGT  --- 18 tcp 1040 [0 0 0 0] ------- [0:0 1:0 32 0] [5 0] 0 0
r 12.518227393 _0_ RTR  --- 18 tcp 1040 [0 0 0 0] ------- [0:0 1:0 32 0] [5 0] 0 0
s 12.518227393 _0_ RTR  --- 18 tcp 1060 [0 0 0 0] ------- [0:0 1:0 32 1] [5 0] 0 0
r 12.518516719 _1_ MAC  --- 0 ACK 38 [0 1 0 0] 
s 12.518686393 _0_ MAC  --- 0 RTS 44 [256e 1 0 0] 
r 12.519038719 _1_ MAC  --- 0 RTS 44 [256e 1 0 0] 
s 12.519048719 _1_ MAC  --- 0 CTS 38 [2434 0 0 0] 
r 12.519353046 _0_ MAC  --- 0 CTS 38 [2434 0 0 0] 
s 12.519363046 _0_ MAC  --- 18 tcp 1118 [13a 1 0 800] ------- [0:0 1:0 32 1] [5 0] 0 0
r 12.528307372 _1_ MAC  --- 18 tcp 1060 [13a 1 0 800] ------- [0:0 1:0 32 1] [5 0] 1 0
s 12.528317372 _1_ MAC  --- 0 ACK 38 [0 0 0 0] 
r 12.528332372 _1_ AGT  --- 18 tcp 1060 [13a 1 0 800] ------- [0:0 1:0 32 1] [5 0] 1 0
s 12.528332372 _1_ AGT  --- 19 ack 40 [0 0 0 0] ------- [1:0 0:0 32 0] [5 0] 0 0
r 12.528332372 _1_ RTR  --- 19 ack 40 [0 0 0 0] ------- [1:0 0:0 32 0] [5 0] 0 0
s 12.528332372 _1_ RTR  --- 19 ack 60 [0 0 0 0] ------- [1:0 0:0 32 0] [5 0] 0 0
r 12.528621698 _0_ MAC  --- 0 ACK 38 [0 0 0 0] 
s 12.528731372 _1_ MAC  --- 0 RTS 44 [62e 0 1 0] 
r 12.529083698 _0_ MAC  --- 0 RTS 44 [62e 0 1 0] 
s 12.529093698 _0_ MAC  --- 0 CTS 38 [4f4 1 0 0] 
r 12.529398025 _1_ MAC  --- 0 CTS 38 [4f4 1 0 0] 
s 12.529408025 _1_ MAC  --- 17 ack 118 [13a 0 1 800] ------- [1:0 0:0 32 0] [4 0] 0 0
r 12.530352351 _0_ MAC  --- 17 ack 60 [13a 0 1 800] ------- [1:0 0:0 32 0] [4 0] 1 0
s 12.530362351 _0_ MAC  --- 0 ACK 38 [0 1 0 0] 
r 12.530377351 _0_ AGT  --- 17 ack 60 [13a 0 1 800] ------- [1:0 0:0 32 0] [4 0] 1 0
s 12.530377351 _0_ AGT  --- 20 tcp 1040 [0 0 0 0] ------- [0:0 1:0 32 0] [6 0] 0 0
r 12.530377351 _0_ RTR  --- 20 tcp 1040 [0 0 0 0] ------- [0:0 1:0 32 0] [6 0] 0 0
s 12.530377351 _0_ RTR  --- 20 tcp 1060 [0 0 0 0] ------- [0:0 1:0 32 1] [6 0] 0 0
s 12.530377351 _0_ AGT  --- 21 tcp 1040 [0 0 0 0] ------- [0:0 1:0 32 0] [7 0] 0 0
r 12.530377351 _0_ RTR  --- 21 tcp 1040 [0 0 0 0] ------- [0:0 1:0 32 0] [7 0] 0 0
s 12.530377351 _0_ RTR  --- 21 tcp 1060 [0 0 0 0] ------- [0:0 1:0 32 1] [7 0] 0 0
r 12.530666678 _1_ MAC  --- 0 ACK 38 [0 1 0 0] 
s 12.530936351 _0_ MAC  --- 0 RTS 44 [256e 1 0 0] 
r 12.531288678 _1_ MAC  --- 0 RTS 44 [256e 1 0 0] 
s 12.531298678 _1_ MAC  --- 0 CTS 38 [2434 0 0 0] 
r 12.531603004 _0_ MAC  --- 0 CTS 38 [2434 0 0 0] 
s 12.531613004 _0_ MAC  --- 20 tcp 1118 [13a 1 0 800] ------- [0:0 1:0 32 1] [6 0] 0 0
r 12.540557330 _1_ MAC  --- 20 tcp 1060 [13a 1 0 800] ------- [0:0 1:0 32 1] [6 0] 1 0
s 12.540567330 _1_ MAC  --- 0 ACK 38 [0 0 0 0] 
r 12.540582330 _1_ AGT  --- 20 tcp 1060 [13a 1 0 800] ------- [0:0 1:0 32 1] [6 0] 1 0
s 12.540582330 _1_ AGT  --- 22 ack 40 [0 0 0 0] ------- [1:0 0:0 32 0] [6 0] 0 0
r 12.540582330 _1_ RTR  --- 22 ack 40 [0 0 0 0] ------- [1:0 0:0 32 0] [6 0] 0 0
s 12.540582330 _1_ RTR  --- 22 ack 60 [0 0 0 0] ------- [1:0 0:0 32 0] [6 0] 0 0
r 12.540871657 _0_ MAC  --- 0 ACK 38 [0 0 0 0] 
s 12.540921657 _0_ MAC  --- 0 RTS 44 [256e 1 0 0] 
r 12.541273984 _1_ MAC  --- 0 RTS 44 [256e 1 0 0] 
s 12.541283984 _1_ MAC  --- 0 CTS 38 [2434 0 0 0] 
r 12.541588310 _0_ MAC  --- 0 CTS 38 [2434 0 0 0] 
s 12.541598310 _0_ MAC  --- 21 tcp 1118 [13a 1 0 800] ------- [0:0 1:0 32 1] [7 0] 0 0
r 12.550542637 _1_ MAC  --- 21 tcp 1060 [13a 1 0 800] ------- [0:0 1:0 32 1] [7 0] 1 0
s 12.550552637 _1_ MAC  --- 0 ACK 38 [0 0 0 0] 
r 12.550567637 _1_ AGT  --- 21 tcp 1060 [13a 1 0 800] ------- [0:0 1:0 32 1] [7 0] 1 0
s 12.550567637 _1_ AGT  --- 23 ack 40 [0 0 0 0] ------- [1:0 0:0 32 0] [7 0] 0 0
r 12.550567637 _1_ RTR  --- 23 ack 40 [0 0 0 0] ------- [1:0 0:0 32 0] [7 0] 0 0
s 12.550567637 _1_ RTR  --- 23 ack 60 [0 0 0 0] ------- [1:0 0:0 32 0] [7 0] 0 0
r 12.550856963 _0_ MAC  --- 0 ACK 38 [0 0 0 0] 
s 12.551166637 _1_ MAC  --- 0 RTS 44 [62e 0 1 0] 
r 12.551518963 _0_ MAC  --- 0 RTS 44 [62e 0 1 0] 
s 12.551528963 _0_ MAC  --- 0 CTS 38 [4f4 1 0 0] 
r 12.551833290 _1_ MAC  --- 0 CTS 38 [4f4 1 0 0] 
s 12.551843290 _1_ MAC  --- 19 ack 118 [13a 0 1 800] ------- [1:0 0:0 32 0] [5 0] 0 0
r 12.552787617 _0_ MAC  --- 19 ack 60 [13a 0 1 800] ------- [1:0 0:0 32 0] [5 0] 1 0
s 12.552797617 _0_ MAC  --- 0 ACK 38 [0 1 0 0] 
r 12.552812617 _0_ AGT  --- 19 ack 60 [13a 0 1 800] ------- [1:0 0:0 32 0] [5 0] 1 0
s 12.552812617 _0_ AGT  --- 24 tcp 1040 [0 0 0 0] ------- [0:0 1:0 32 0] [8 0] 0 0
r 12.552812617 _0_ RTR  --- 24 tcp 1040 [0 0 0 0] ------- [0:0 1:0 32 0] [8 0] 0 0
s 12.552812617 _0_ RTR  --- 24 tcp 1060 [0 0 0 0] ------- [0:0 1:0 32 1] [8 0] 0 0
r 12.553101943 _1_ MAC  --- 0 ACK 38 [0 1 0 0] 
s 12.553311943 _1_ MAC  --- 0 RTS 44 [62e 0 1 0] 
r 12.553664270 _0_ MAC  --- 0 RTS 44 [62e 0 1 0] 
s 12.553674270 _0_ MAC  --- 0 CTS 38 [4f4 1 0 0] 
r 12.553978597 _1_ MAC  --- 0 CTS 38 [4f4 1 0 0] 
s 12.553988597 _1_ MAC  --- 22 ack 118 [13a 0 1 800] ------- [1:0 0:0 32 0] [6 0] 0 0
r 12.554932923 _0_ MAC  --- 22 ack 60 [13a 0 1 800] ------- [1:0 0:0 32 0] [6 0] 1 0
s 12.554942923 _0_ MAC  --- 0 ACK 38 [0 1 0 0] 
r 12.554957923 _0_ AGT  --- 22 ack 60 [13a 0 1 800] ------- [1:0 0:0 32 0] [6 0] 1 0
s 12.554957923 _0_ AGT  --- 25 tcp 1040 [0 0 0 0] ------- [0:0 1:0 32 0] [9 0] 0 0
r 12.554957923 _0_ RTR  --- 25 tcp 1040 [0 0 0 0] ------- [0:0 1:0 32 0] [9 0] 0 0
s 12.554957923 _0_ RTR  --- 25 tcp 1060 [0 0 0 0] ------- [0:0 1:0 32 1] [9 0] 0 0
r 12.555247250 _1_ MAC  --- 0 ACK 38 [0 1 0 0] 
s 12.555456923 _0_ MAC  --- 0 RTS 44 [256e 1 0 0] 
r 12.555809250 _1_ MAC  --- 0 RTS 44 [256e 1 0 0] 
s 12.555819250 _1_ MAC  --- 0 CTS 38 [2434 0 0 0] 
r 12.556123577 _0_ MAC  --- 0 CTS 38 [2434 0 0 0] 
s 12.556133577 _0_ MAC  --- 24 tcp 1118 [13a 1 0 800] ------- [0:0 1:0 32 1] [8 0] 0 0
r 12.565077903 _1_ MAC  --- 24 tcp 1060 [13a 1 0 800] ------- [0:0 1:0 32 1] [8 0] 1 0
s 12.565087903 _1_ MAC  --- 0 ACK 38 [0 0 0 0] 
r 12.565102903 _1_ AGT  --- 24 tcp 1060 [13a 1 0 800] ------- [0:0 1:0 32 1] [8 0] 1 0
s 12.565102903 _1_ AGT  --- 26 ack 40 [0 0 0 0] ------- [1:0 0:0 32 0] [8 0] 0 0
r 12.565102903 _1_ RTR  --- 26 ack 40 [0 0 0 0] ------- [1:0 0:0 32 0] [8 0] 0 0
s 12.565102903 _1_ RTR  --- 26 ack 60 [0 0 0 0] ------- [1:0 0:0 32 0] [8 0] 0 0
r 12.565392230 _0_ MAC  --- 0 ACK 38 [0 0 0 0] 
s 12.565501903 _1_ MAC  --- 0 RTS 44 [62e 0 1 0] 
r 12.565854230 _0_ MAC  --- 0 RTS 44 [62e 0 1 0] 
s 12.565864230 _0_ MAC  --- 0 CTS 38 [4f4 1 0 0] 
r 12.566168557 _1_ MAC  --- 0 CTS 38 [4f4 1 0 0] 
s 12.566178557 _1_ MAC  --- 23 ack 118 [13a 0 1 800] ------- [1:0 0:0 32 0] [7 0] 0 0
r 12.567122884 _0_ MAC  --- 23 ack 60 [13a 0 1 800] ------- [1:0 0:0 32 0] [7 0] 1 0
s 12.567132884 _0_ MAC  --- 0 ACK 38 [0 1 0 0] 
r 12.567147884 _0_ AGT  --- 23 ack 60 [13a 0 1 800] ------- [1:0 0:0 32 0] [7 0] 1 0
s 12.567147884 _0_ AGT  --- 27 tcp 1040 [0 0 0 0] ------- [0:0 1:0 32 0] [10 0] 0 0
r 12.567147884 _0_ RTR  --- 27 tcp 1040 [0 0 0 0] ------- [0:0 1:0 32 0] [10 0] 0 0
s 12.567147884 _0_ RTR  --- 27 tcp 1060 [0 0 0 0] ------- [0:0 1:0 32 1] [10 0] 0 0
s 12.567147884 _0_ AGT  --- 28 tcp 1040 [0 0 0 0] ------- [0:0 1:0 32 0] [11 0] 0 0
r 12.567147884 _0_ RTR  --- 28 tcp 1040 [0 0 0 0] ------- [0:0 1:0 32 0] [11 0] 0 0
s 12.567147884 _0_ RTR  --- 28 tcp 1060 [0 0 0 0] ------- [0:0 1:0 32 1] [11 0] 0 0
r 12.567437211 _1_ MAC  --- 0 ACK 38 [0 1 0 0] 
s 12.567506884 _0_ MAC  --- 0 RTS 44 [256e 1 0 0] 
r 12.567859211 _1_ MAC  --- 0 RTS 44 [256e 1 0 0] 
s 12.567869211 _1_ MAC  --- 0 CTS 38 [2434 0 0 0] 
r 12.568173538 _0_ MAC  --- 0 CTS 38 [2434 0 0 0] 
s 12.568183538 _0_ MAC  --- 25 tcp 1118 [13a 1 0 800] ------- [0:0 1:0 32 1] [9 0] 0 0
r 12.577127864 _1_ MAC  --- 25 tcp 1060 [13a 1 0 800] ------- [0:0 1:0 32 1] [9 0] 1 0
s 12.577137864 _1_ MAC  --- 0 ACK 38 [0 0 0 0] 
r 12.577152864 _1_ AGT  --- 25 tcp 1060 [13a 1 0 800] ------- [0:0 1:0 32 1] [9 0] 1 0
s 12.577152864 _1_ AGT  --- 29 ack 40 [0 0 0 0] ------- [1:0 0:0 32 0] [9 0] 0 0
r 12.577152864 _1_ RTR  --- 29 ack 40 [0 0 0 0] ------- [1:0 0:0 32 0] [9 0] 0 0
s 12.577152864 _1_ RTR  --- 29 ack 60 [0 0 0 0] ------- [1:0 0:0 32 0] [9 0] 0 0
r 12.577442191 _0_ MAC  --- 0 ACK 38 [0 0 0 0] 
s 12.577492191 _0_ MAC  --- 0 RTS 44 [256e 1 0 0] 
r 12.577844518 _1_ MAC  --- 0 RTS 44 [256e 1 0 0] 
s 12.577854518 _1_ MAC  --- 0 CTS 38 [2434 0 0 0] 
r 12.578158845 _0_ MAC  --- 0 CTS 38 [2434 0 0 0] 
s 12.578168845 _0_ MAC  --- 27 tcp 1118 [13a 1 0 800] ------- [0:0 1:0 32 1] [10 0] 0 0
r 12.587113172 _1_ MAC  --- 27 tcp 1060 [13a 1 0 800] ------- [0:0 1:0 32 1] [10 0] 1 0
s 12.587123172 _1_ MAC  --- 0 ACK 38 [0 0 0 0] 
r 12.587138172 _1_ AGT  --- 27 tcp 1060 [13a 1 0 800] ------- [0:0 1:0 32 1] [10 0] 1 0
s 12.587138172 _1_ AGT  --- 31 ack 40 [0 0 0 0] ------- [1:0 0:0 32 0] [10 0] 0 0
r 12.587138172 _1_ RTR  --- 31 ack 40 [0 0 0 0] ------- [1:0 0:0 32 0] [10 0] 0 0
s 12.587138172 _1_ RTR  --- 31 ack 60 [0 0 0 0] ------- [1:0 0:0 32 0] [10 0] 0 0
r 12.587427499 _0_ MAC  --- 0 ACK 38 [0 0 0 0] 
s 12.587757172 _1_ MAC  --- 0 RTS 44 [62e 0 1 0] 
s 12.587757499 _0_ MAC  --- 0 RTS 44 [256e 1 0 0] 
s 12.589163826 _1_ MAC  --- 0 RTS 44 [62e 0 1 0] 
r 12.589516153 _0_ MAC  --- 0 RTS 44 [62e 0 1 0] 
s 12.589526153 _0_ MAC  --- 0 CTS 38 [4f4 1 0 0] 
r 12.589830480 _1_ MAC  --- 0 CTS 38 [4f4 1 0 0] 
s 12.589840480 _1_ MAC  --- 26 ack 118 [13a 0 1 800] ------- [1:0 0:0 32 0] [8 0] 0 0
r 12.590784808 _0_ MAC  --- 26 ack 60 [13a 0 1 800] ------- [1:0 0:0 32 0] [8 0] 1 0
s 12.590794808 _0_ MAC  --- 0 ACK 38 [0 1 0 0] 
r 12.590809808 _0_ AGT  --- 26 ack 60 [13a 0 1 800] ------- [1:0 0:0 32 0] [8 0] 1 0
s 12.590809808 _0_ AGT  --- 32 tcp 1040 [0 0 0 0] ------- [0:0 1:0 32 0] [12 0] 0 0
r 12.590809808 _0_ RTR  --- 32 tcp 1040 [0 0 0 0] ------- [0:0 1:0 32 0] [12 0] 0 0
s 12.590809808 _0_ RTR  --- 32 tcp 1060 [0 0 0 0] ------- [0:0 1:0 32 1] [12 0] 0 0
r 12.591099135 _1_ MAC  --- 0 ACK 38 [0 1 0 0] 
s 12.591308808 _0_ MAC  --- 0 RTS 44 [256e 1 0 0] 
r 12.591661135 _1_ MAC  --- 0 RTS 44 [256e 1 0 0] 
s 12.591671135 _1_ MAC  --- 0 CTS 38 [2434 0 0 0] 
r 12.591975462 _0_ MAC  --- 0 CTS 38 [2434 0 0 0] 
s 12.591985462 _0_ MAC  --- 28 tcp 1118 [13a 1 0 800] ------- [0:0 1:0 32 1] [11 0] 0 0
s 12.593141681 _2_ RTR  --- 30 message 32 [0 0 0 0] ------- [2:255 -1:255 32 0] 
r 12.600929789 _1_ MAC  --- 28 tcp 1060 [13a 1 0 800] ------- [0:0 1:0 32 1] [11 0] 1 0
s 12.600939789 _1_ MAC  --- 0 ACK 38 [0 0 0 0] 
r 12.600954789 _1_ AGT  --- 28 tcp 1060 [13a 1 0 800] ------- [0:0 1:0 32 1] [11 0] 1 0
s 12.600954789 _1_ AGT  --- 33 ack 40 [0 0 0 0] ------- [1:0 0:0 32 0] [11 0] 0 0
r 12.600954789 _1_ RTR  --- 33 ack 40 [0 0 0 0] ------- [1:0 0:0 32 0] [11 0] 0 0
s 12.600954789 _1_ RTR  --- 33 ack 60 [0 0 0 0] ------- [1:0 0:0 32 0] [11 0] 0 0
r 12.601244116 _0_ MAC  --- 0 ACK 38 [0 0 0 0] 
s 12.601373789 _1_ MAC  --- 0 RTS 44 [62e 0 1 0] 
r 12.601726116 _0_ MAC  --- 0 RTS 44 [62e 0 1 0] 
s 12.601736116 _0_ MAC  --- 0 CTS 38 [4f4 1 0 0] 
r 12.602040443 _1_ MAC  --- 0 CTS 38 [4f4 1 0 0] 
s 12.602050443 _1_ MAC  --- 29 ack 118 [13a 0 1 800] ------- [1:0 0:0 32 0] [9 0] 0 0
r 12.602994771 _0_ MAC  --- 29 ack 60 [13a 0 1 800] ------- [1:0 0:0 32 0] [9 0] 1 0
s 12.603004771 _0_ MAC  --- 0 ACK 38 [0 1 0 0] 
r 12.603019771 _0_ AGT  --- 29 ack 60 [13a 0 1 800] ------- [1:0 0:0 32 0] [9 0] 1 0
s 12.603019771 _0_ AGT  --- 34 tcp 1040 [0 0 0 0] ------- [0:0 1:0 32 0] [13 0] 0 0
r 12.603019771 _0_ RTR  --- 34 tcp 1040 [0 0 0 0] ------- [0:0 1:0 32 0] [13 0] 0 0
s 12.603019771 _0_ RTR  --- 34 tcp 1060 [0 0 0 0] ------- [0:0 1:0 32 1] [13 0] 0 0
r 12.603309098 _1_ MAC  --- 0 ACK 38 [0 1 0 0] 
s 12.603399098 _1_ MAC  --- 0 RTS 44 [62e 0 1 0] 
r 12.603751425 _0_ MAC  --- 0 RTS 44 [62e 0 1 0] 
s 12.603761425 _0_ MAC  --- 0 CTS 38 [4f4 1 0 0] 
r 12.604065752 _1_ MAC  --- 0 CTS 38 [4f4 1 0 0] 
s 12.604075752 _1_ MAC  --- 31 ack 118 [13a 0 1 800] ------- [1:0 0:0 32 0] [10 0] 0 0
r 12.605020080 _0_ MAC  --- 31 ack 60 [13a 0 1 800] ------- [1:0 0:0 32 0] [10 0] 1 0
s 12.605030080 _0_ MAC  --- 0 ACK 38 [0 1 0 0] 
r 12.605045080 _0_ AGT  --- 31 ack 60 [13a 0 1 800] ------- [1:0 0:0 32 0] [10 0] 1 0
s 12.605045080 _0_ AGT  --- 35 tcp 1040 [0 0 0 0] ------- [0:0 1:0 32 0] [14 0] 0 0
r 12.605045080 _0_ RTR  --- 35 tcp 1040 [0 0 0 0] ------- [0:0 1:0 32 0] [14 0] 0 0
s 12.605045080 _0_ RTR  --- 35 tcp 1060 [0 0 0 0] ------- [0:0 1:0 32 1] [14 0] 0 0
r 12.605334407 _1_ MAC  --- 0 ACK 38 [0 1 0 0] 
s 12.605564080 _0_ MAC  --- 0 RTS 44 [256e 1 0 0] 
r 12.605916407 _1_ MAC  --- 0 RTS 44 [256e 1 0 0] 
s 12.605926407 _1_ MAC  --- 0 CTS 38 [2434 0 0 0] 
r 12.606230734 _0_ MAC  --- 0 CTS 38 [2434 0 0 0] 
s 12.606240734 _0_ MAC  --- 32 tcp 1118 [13a 1 0 800] ------- [0:0 1:0 32 1] [12 0] 0 0
r 12.615185061 _1_ MAC  --- 32 tcp 1060 [13a 1 0 800] ------- [0:0 1:0 32 1] [12 0] 1 0
s 12.615195061 _1_ MAC  --- 0 ACK 38 [0 0 0 0] 
r 12.615210061 _1_ AGT  --- 32 tcp 1060 [13a 1 0 800] ------- [0:0 1:0 32 1] [12 0] 1 0
s 12.615210061 _1_ AGT  --- 36 ack 40 [0 0 0 0] ------- [1:0 0:0 32 0] [12 0] 0 0
r 12.615210061 _1_ RTR  --- 36 ack 40 [0 0 0 0] ------- [1:0 0:0 32 0] [12 0] 0 0
s 12.615210061 _1_ RTR  --- 36 ack 60 [0 0 0 0] ------- [1:0 0:0 32 0] [12 0] 0 0
r 12.615499389 _0_ MAC  --- 0 ACK 38 [0 0 0 0] 
s 12.615669389 _0_ MAC  --- 0 RTS 44 [256e 1 0 0] 
r 12.616021716 _1_ MAC  --- 0 RTS 44 [256e 1 0 0] 
s 12.616031716 _1_ MAC  --- 0 CTS 38 [2434 0 0 0] 
r 12.616336043 _0_ MAC  --- 0 CTS 38 [2434 0 0 0] 
s 12.616346043 _0_ MAC  --- 34 tcp 1118 [13a 1 0 800] ------- [0:0 1:0 32 1] [13 0] 0 0
r 12.625290371 _1_ MAC  --- 34 tcp 1060 [13a 1 0 800] ------- [0:0 1:0 32 1] [13 0] 1 0
s 12.625300371 _1_ MAC  --- 0 ACK 38 [0 0 0 0] 
r 12.625315371 _1_ AGT  --- 34 tcp 1060 [13a 1 0 800] ------- [0:0 1:0 32 1] [13 0] 1 0
s 12.625315371 _1_ AGT  --- 37 ack 40 [0 0 0 0] ------- [1:0 0:0 32 0] [13 0] 0 0
r 12.625315371 _1_ RTR  --- 37 ack 40 [0 0 0 0] ------- [1:0 0:0 32 0] [13 0] 0 0
s 12.625315371 _1_ RTR  --- 37 ack 60 [0 0 0 0] ------- [1:0 0:0 32 0] [13 0] 0 0
r 12.625604698 _0_ MAC  --- 0 ACK 38 [0 0 0 0] 
s 12.625814371 _1_ MAC  --- 0 RTS 44 [62e 0 1 0] 
r 12.626166698 _0_ MAC  --- 0 RTS 44 [62e 0 1 0] 
s 12.626176698 _0_ MAC  --- 0 CTS 38 [4f4 1 0 0] 
r 12.626481026 _1_ MAC  --- 0 CTS 38 [4f4 1 0 0] 
s 12.626491026 _1_ MAC  --- 33 ack 118 [13a 0 1 800] ------- [1:0 0:0 32 0] [11 0] 0 0
r 12.627435353 _0_ MAC  --- 33 ack 60 [13a 0 1 800] ------- [1:0 0:0 32 0] [11 0] 1 0
s 12.627445353 _0_ MAC  --- 0 ACK 38 [0 1 0 0] 
r 12.627460353 _0_ AGT  --- 33 ack 60 [13a 0 1 800] ------- [1:0 0:0 32 0] [11 0] 1 0
s 12.627460353 _0_ AGT  --- 38 tcp 1040 [0 0 0 0] ------- [0:0 1:0 32 0] [15 0] 0 0
r 12.627460353 _0_ RTR  --- 38 tcp 1040 [0 0 0 0] ------- [0:0 1:0 32 0] [15 0] 0 0
s 12.627460353 _0_ RTR  --- 38 tcp 1060 [0 0 0 0] ------- [0:0 1:0 32 1] [15 0] 0 0
r 12.627749681 _1_ MAC  --- 0 ACK 38 [0 1 0 0] 
s 12.627839353 _0_ MAC  --- 0 RTS 44 [256e 1 0 0] 
r 12.628191681 _1_ MAC  --- 0 RTS 44 [256e 1 0 0] 
s 12.628201681 _1_ MAC  --- 0 CTS 38 [2434 0 0 0] 
r 12.628506008 _0_ MAC  --- 0 CTS 38 [2434 0 0 0] 
s 12.628516008 _0_ MAC  --- 35 tcp 1118 [13a 1 0 800] ------- [0:0 1:0 32 1] [14 0] 0 0
r 12.637460336 _1_ MAC  --- 35 tcp 1060 [13a 1 0 800] ------- [0:0 1:0 32 1] [14 0] 1 0
s 12.637470336 _1_ MAC  --- 0 ACK 38 [0 0 0 0] 
r 12.637485336 _1_ AGT  --- 35 tcp 1060 [13a 1 0 800] ------- [0:0 1:0 32 1] [14 0] 1 0
s 12.637485336 _1_ AGT  --- 39 ack 40 [0 0 0 0] ------- [1:0 0:0 32 0] [14 0] 0 0
r 12.637485336 _1_ RTR  --- 39 ack 40 [0 0 0 0] ------- [1:0 0:0 32 0] [14 0] 0 0
s 12.637485336 _1_ RTR  --- 39 ack 60 [0 0 0 0] ------- [1:0 0:0 32 0] [14 0] 0 0
r 12.637774663 _0_ MAC  --- 0 ACK 38 [0 0 0 0] 
s 12.637884336 _1_ MAC  --- 0 RTS 44 [62e 0 1 0] 
r 12.638236663 _0_ MAC  --- 0 RTS 44 [62e 0 1 0] 
s 12.638246663 _0_ MAC  --- 0 CTS 38 [4f4 1 0 0] 
r 12.638550991 _1_ MAC  --- 0 CTS 38 [4f4 1 0 0] 
s 12.638560991 _1_ MAC  --- 36 ack 118 [13a 0 1 800] ------- [1:0 0:0 32 0] [12 0] 0 0
r 12.639505319 _0_ MAC  --- 36 ack 60 [13a 0 1 800] ------- [1:0 0:0 32 0] [12 0] 1 0
s 12.639515319 _0_ MAC  --- 0 ACK 38 [0 1 0 0] 
r 12.639530319 _0_ AGT  --- 36 ack 60 [13a 0 1 800] ------- [1:0 0:0 32 0] [12 0] 1 0
s 12.639530319 _0_ AGT  --- 40 tcp 1040 [0 0 0 0] ------- [0:0 1:0 32 0] [16 0] 0 0
r 12.639530319 _0_ RTR  --- 40 tcp 1040 [0 0 0 0] ------- [0:0 1:0 32 0] [16 0] 0 0
s 12.639530319 _0_ RTR  --- 40 tcp 1060 [0 0 0 0] ------- [0:0 1:0 32 1] [16 0] 0 0
s 12.639530319 _0_ AGT  --- 41 tcp 1040 [0 0 0 0] ------- [0:0 1:0 32 0] [17 0] 0 0
r 12.639530319 _0_ RTR  --- 41 tcp 1040 [0 0 0 0] ------- [0:0 1:0 32 0] [17 0] 0 0
s 12.639530319 _0_ RTR  --- 41 tcp 1060 [0 0 0 0] ------- [0:0 1:0 32 1] [17 0] 0 0
r 12.639819646 _1_ MAC  --- 0 ACK 38 [0 1 0 0] 
s 12.639889319 _0_ MAC  --- 0 RTS 44 [256e 1 0 0] 
r 12.640241646 _1_ MAC  --- 0 RTS 44 [256e 1 0 0] 
s 12.640251646 _1_ MAC  --- 0 CTS 38 [2434 0 0 0] 
r 12.640555974 _0_ MAC  --- 0 CTS 38 [2434 0 0 0] 
s 12.640565974 _0_ MAC  --- 38 tcp 1118 [13a 1 0 800] ------- [0:0 1:0 32 1] [15 0] 0 0
r 12.649510302 _1_ MAC  --- 38 tcp 1060 [13a 1 0 800] ------- [0:0 1:0 32 1] [15 0] 1 0
s 12.649520302 _1_ MAC  --- 0 ACK 38 [0 0 0 0] 
r 12.649535302 _1_ AGT  --- 38 tcp 1060 [13a 1 0 800] ------- [0:0 1:0 32 1] [15 0] 1 0
s 12.649535302 _1_ AGT  --- 42 ack 40 [0 0 0 0] ------- [1:0 0:0 32 0] [15 0] 0 0
r 12.649535302 _1_ RTR  --- 42 ack 40 [0 0 0 0] ------- [1:0 0:0 32 0] [15 0] 0 0
s 12.649535302 _1_ RTR  --- 42 ack 60 [0 0 0 0] ------- [1:0 0:0 32 0] [15 0] 0 0
r 12.649824629 _0_ MAC  --- 0 ACK 38 [0 0 0 0] 
s 12.650074629 _0_ MAC  --- 0 RTS 44 [256e 1 0 0] 
r 12.650426957 _1_ MAC  --- 0 RTS 44 [256e 1 0 0] 
s 12.650436957 _1_ MAC  --- 0 CTS 38 [2434 0 0 0] 
r 12.650741285 _0_ MAC  --- 0 CTS 38 [2434 0 0 0] 
s 12.650751285 _0_ MAC  --- 40 tcp 1118 [13a 1 0 800] ------- [0:0 1:0 32 1] [16 0] 0 0
r 12.659695613 _1_ MAC  --- 40 tcp 1060 [13a 1 0 800] ------- [0:0 1:0 32 1] [16 0] 1 0
s 12.659705613 _1_ MAC  --- 0 ACK 38 [0 0 0 0] 
r 12.659720613 _1_ AGT  --- 40 tcp 1060 [13a 1 0 800] ------- [0:0 1:0 32 1] [16 0] 1 0
s 12.659720613 _1_ AGT  --- 43 ack 40 [0 0 0 0] ------- [1:0 0:0 32 0] [16 0] 0 0
r 12.659720613 _1_ RTR  --- 43 ack 40 [0 0 0 0] ------- [1:0 0:0 32 0] [16 0] 0 0
s 12.659720613 _1_ RTR  --- 43 ack 60 [0 0 0 0] ------- [1:0 0:0 32 0] [16 0] 0 0
r 12.660009941 _0_ MAC  --- 0 ACK 38 [0 0 0 0] 
s 12.660099613 _1_ MAC  --- 0 RTS 44 [62e 0 1 0] 
r 12.660451941 _0_ MAC  --- 0 RTS 44 [62e 0 1 0] 
s 12.660461941 _0_ MAC  --- 0 CTS 38 [4f4 1 0 0] 
r 12.660766268 _1_ MAC  --- 0 CTS 38 [4f4 1 0 0] 
s 12.660776268 _1_ MAC  --- 37 ack 118 [13a 0 1 800] ------- [1:0 0:0 32 0] [13 0] 0 0
r 12.661720596 _0_ MAC  --- 37 ack 60 [13a 0 1 800] ------- [1:0 0:0 32 0] [13 0] 1 0
s 12.661730596 _0_ MAC  --- 0 ACK 38 [0 1 0 0] 